MODEL 1
REMARK VINA RESULT:    -8.951      0.000      0.000
REMARK INTER + INTRA:         -14.274
REMARK INTER:                 -12.876
REMARK INTRA:                  -1.398
REMARK UNBOUND:                -1.398
REMARK SMILES COc1cc2nc(C)nc(N[C@H](C)c3cc(N)cc(C(F)(F)F)c3)c2cc1O[C@H]1CCOC1
REMARK SMILES IDX 11 1 10 3 3 4 4 5 27 6 5 7 26 8 6 9 25 10 7 11 9 12 8 13
REMARK SMILES IDX 2 14 1 15 28 16 29 17 30 18 33 19 31 20 32 21 12 22 13 23
REMARK SMILES IDX 14 24 15 25 24 26 16 27 19 28 18 29 17 30 20 33 21 34 22 35
REMARK SMILES IDX 23 36
REMARK H PARENT 11 2 17 31 17 32
ROOT
ATOM      1  N   UNL     1       0.617 -31.668 -43.008  1.00  0.00    -0.363 N 
ATOM      2  H   UNL     1       1.085 -30.891 -42.552  1.00  0.00    +0.162 HD
ENDROOT
BRANCH   1   3
ATOM      3  C   UNL     1      -0.342 -31.146 -43.893  1.00  0.00    +0.138 A 
ATOM      4  C   UNL     1       0.657 -28.203 -46.767  1.00  0.00    +0.162 A 
ATOM      5  C   UNL     1      -0.633 -28.737 -46.631  1.00  0.00    +0.079 A 
ATOM      6  C   UNL     1       1.657 -28.641 -45.892  1.00  0.00    +0.162 A 
ATOM      7  C   UNL     1      -0.951 -29.702 -45.681  1.00  0.00    +0.080 A 
ATOM      8  C   UNL     1       1.353 -29.632 -44.952  1.00  0.00    +0.064 A 
ATOM      9  N   UNL     1      -2.205 -30.154 -45.634  1.00  0.00    -0.233 NA
ATOM     10  C   UNL     1       0.049 -30.164 -44.824  1.00  0.00    +0.047 A 
ATOM     11  C   UNL     1      -2.482 -31.096 -44.722  1.00  0.00    +0.128 A 
ATOM     12  N   UNL     1      -1.595 -31.619 -43.865  1.00  0.00    -0.216 NA
ATOM     13  C   UNL     1      -3.880 -31.634 -44.684  1.00  0.00    +0.090 C 
BRANCH   4  14
ATOM     14  O   UNL     1       0.994 -27.284 -47.723  1.00  0.00    -0.493 OA
ATOM     15  C   UNL     1       1.277 -27.756 -49.037  1.00  0.00    +0.278 C 
ENDBRANCH   4  14
BRANCH   6  16
ATOM     16  O   UNL     1       2.968 -28.249 -45.843  1.00  0.00    -0.484 OA
BRANCH  16  17
ATOM     17  C   UNL     1       3.956 -29.024 -46.508  1.00  0.00    +0.201 C 
ATOM     18  C   UNL     1       4.726 -28.287 -47.583  1.00  0.00    +0.076 C 
ATOM     19  C   UNL     1       5.089 -29.342 -45.535  1.00  0.00    +0.205 C 
ATOM     20  C   UNL     1       6.015 -29.078 -47.644  1.00  0.00    +0.164 C 
ATOM     21  O   UNL     1       6.280 -29.544 -46.314  1.00  0.00    -0.377 OA
ENDBRANCH  16  17
ENDBRANCH   6  16
ENDBRANCH   1   3
BRANCH   1  22
ATOM     22  C   UNL     1       0.267 -32.699 -42.023  1.00  0.00    +0.108 C 
ATOM     23  C   UNL     1       0.621 -32.301 -40.587  1.00  0.00    +0.036 C 
BRANCH  22  24
ATOM     24  C   UNL     1       0.673 -34.091 -42.484  1.00  0.00    -0.023 A 
ATOM     25  C   UNL     1       1.976 -34.394 -42.914  1.00  0.00    +0.031 A 
ATOM     26  C   UNL     1      -0.281 -35.122 -42.488  1.00  0.00    +0.019 A 
ATOM     27  C   UNL     1       2.321 -35.672 -43.366  1.00  0.00    +0.032 A 
ATOM     28  C   UNL     1       0.061 -36.428 -42.875  1.00  0.00    +0.058 A 
ATOM     29  C   UNL     1       1.373 -36.692 -43.292  1.00  0.00    +0.038 A 
BRANCH  27  30
ATOM     30  N   UNL     1       3.655 -35.972 -43.676  1.00  0.00    -0.399 N 
ATOM     31  H   UNL     1       4.128 -35.248 -44.209  1.00  0.00    +0.156 HD
ATOM     32  H   UNL     1       4.201 -36.273 -42.874  1.00  0.00    +0.156 HD
ENDBRANCH  27  30
BRANCH  28  33
ATOM     33  C   UNL     1      -0.983 -37.516 -42.864  1.00  0.00    +0.416 C 
ATOM     34  F   UNL     1      -0.839 -38.395 -43.897  1.00  0.00    -0.166 F 
ATOM     35  F   UNL     1      -0.930 -38.267 -41.730  1.00  0.00    -0.166 F 
ATOM     36  F   UNL     1      -2.259 -37.050 -42.946  1.00  0.00    -0.166 F 
ENDBRANCH  28  33
ENDBRANCH  22  24
ENDBRANCH   1  22
TORSDOF 8
ENDMDL
