REMARK SMILES COc1cc2nc(C)nc(N[C@H](C)c3cc(N)cc(C(F)(F)F)c3)c2cc1O[C@H]1CCOC1
REMARK SMILES IDX 11 1 10 3 3 4 4 5 27 6 5 7 26 8 6 9 25 10 7 11 9 12 8 13
REMARK SMILES IDX 2 14 1 15 28 16 29 17 30 18 33 19 31 20 32 21 12 22 13 23
REMARK SMILES IDX 14 24 15 25 24 26 16 27 19 28 18 29 17 30 20 33 21 34 22 35
REMARK SMILES IDX 23 36
REMARK H PARENT 11 2 17 31 17 32
ROOT
ATOM      1  N   UNL     1       1.291  -0.512   1.611  1.00  0.00    -0.363 N 
ATOM      2  H   UNL     1       1.042  -1.247   0.956  1.00  0.00    +0.162 HD
ENDROOT
BRANCH   1   3
ATOM      3  C   UNL     1       0.719   0.690   1.161  1.00  0.00    +0.138 A 
ATOM      4  C   UNL     1      -3.392   0.970   0.195  1.00  0.00    +0.162 A 
ATOM      5  C   UNL     1      -2.507   2.054   0.106  1.00  0.00    +0.079 A 
ATOM      6  C   UNL     1      -2.889  -0.273   0.594  1.00  0.00    +0.162 A 
ATOM      7  C   UNL     1      -1.157   1.950   0.423  1.00  0.00    +0.080 A 
ATOM      8  C   UNL     1      -1.538  -0.380   0.942  1.00  0.00    +0.064 A 
ATOM      9  N   UNL     1      -0.396   3.041   0.314  1.00  0.00    -0.233 NA
ATOM     10  C   UNL     1      -0.654   0.720   0.849  1.00  0.00    +0.047 A 
ATOM     11  C   UNL     1       0.898   2.919   0.642  1.00  0.00    +0.128 A 
ATOM     12  N   UNL     1       1.477   1.792   1.077  1.00  0.00    -0.216 NA
ATOM     13  C   UNL     1       1.753   4.146   0.555  1.00  0.00    +0.090 C 
BRANCH   4  14
ATOM     14  O   UNL     1      -4.730   1.067  -0.074  1.00  0.00    -0.493 OA
ATOM     15  C   UNL     1      -5.275   2.362  -0.309  1.00  0.00    +0.278 C 
ENDBRANCH   4  14
BRANCH   6  16
ATOM     16  O   UNL     1      -3.567  -1.453   0.737  1.00  0.00    -0.484 OA
BRANCH  16  17
ATOM     17  C   UNL     1      -4.704  -1.710  -0.075  1.00  0.00    +0.201 C 
ATOM     18  C   UNL     1      -4.430  -1.742  -1.564  1.00  0.00    +0.076 C 
ATOM     19  C   UNL     1      -5.168  -3.148   0.144  1.00  0.00    +0.205 C 
ATOM     20  C   UNL     1      -5.566  -2.603  -2.074  1.00  0.00    +0.164 C 
ATOM     21  O   UNL     1      -5.848  -3.567  -1.051  1.00  0.00    -0.377 OA
ENDBRANCH  16  17
ENDBRANCH   6  16
ENDBRANCH   1   3
BRANCH   1  22
ATOM     22  C   UNL     1       2.716  -0.600   1.954  1.00  0.00    +0.108 C 
ATOM     23  C   UNL     1       3.104   0.288   3.139  1.00  0.00    +0.036 C 
BRANCH  22  24
ATOM     24  C   UNL     1       3.604  -0.548   0.719  1.00  0.00    -0.023 A 
ATOM     25  C   UNL     1       4.337   0.597   0.363  1.00  0.00    +0.031 A 
ATOM     26  C   UNL     1       3.704  -1.680  -0.107  1.00  0.00    +0.019 A 
ATOM     27  C   UNL     1       5.122   0.635  -0.794  1.00  0.00    +0.032 A 
ATOM     28  C   UNL     1       4.537  -1.685  -1.237  1.00  0.00    +0.058 A 
ATOM     29  C   UNL     1       5.257  -0.525  -1.556  1.00  0.00    +0.038 A 
BRANCH  27  30
ATOM     30  N   UNL     1       5.931   1.749  -1.058  1.00  0.00    -0.399 N 
ATOM     31  H   UNL     1       6.209   1.837  -2.031  1.00  0.00    +0.156 HD
ATOM     32  H   UNL     1       5.558   2.619  -0.688  1.00  0.00    +0.156 HD
ENDBRANCH  27  30
BRANCH  28  33
ATOM     33  C   UNL     1       4.628  -2.916  -2.103  1.00  0.00    +0.416 C 
ATOM     34  F   UNL     1       4.756  -4.063  -1.377  1.00  0.00    -0.166 F 
ATOM     35  F   UNL     1       3.517  -3.087  -2.871  1.00  0.00    -0.166 F 
ATOM     36  F   UNL     1       5.681  -2.901  -2.965  1.00  0.00    -0.166 F 
ENDBRANCH  28  33
ENDBRANCH  22  24
ENDBRANCH   1  22
TORSDOF 8
