MODEL 1
REMARK VINA RESULT:    -7.729      0.000      0.000
REMARK INTER + INTRA:         -11.439
REMARK INTER:                  -9.988
REMARK INTRA:                  -1.451
REMARK UNBOUND:                -1.451
REMARK SMILES CN1CCC(N)(C2CCN(c3cnc(-c4ccccc4-c4cccc(Cl)c4Cl)c(N)n3)CC2)CC1
REMARK SMILES IDX 7 1 8 2 9 3 10 4 32 5 33 6 5 7 2 8 3 9 35 10 4 11 34 12 1 13
REMARK SMILES IDX 6 14 11 17 12 18 31 19 13 20 29 21 14 22 30 23 15 26 16 27
REMARK SMILES IDX 20 28 17 29 19 30 18 31 21 32 22 33 27 34 23 35 25 36 24 37
REMARK SMILES IDX 28 38 26 39
REMARK H PARENT 6 15 6 16 30 24 30 25
ROOT
ATOM      1  C   UNL     1      23.314  41.395   3.604  1.00  0.00    +0.012 C 
ATOM      2  C   UNL     1      23.515  41.629   2.095  1.00  0.00    +0.027 C 
ATOM      3  C   UNL     1      24.990  41.479   1.710  1.00  0.00    +0.118 C 
ATOM      4  N   UNL     1      25.644  40.384   2.444  1.00  0.00    -0.355 N 
ATOM      5  C   UNL     1      24.753  39.345   2.960  1.00  0.00    +0.118 C 
ATOM      6  C   UNL     1      23.755  39.954   3.954  1.00  0.00    +0.027 C 
ENDROOT
BRANCH   1   7
ATOM      7  C   UNL     1      21.884  41.782   4.121  1.00  0.00    +0.021 C 
ATOM      8  N   UNL     1      19.895  40.893   6.212  1.00  0.00    -0.306 NA
ATOM      9  C   UNL     1      19.614  40.809   4.773  1.00  0.00    +0.086 C 
ATOM     10  C   UNL     1      21.300  41.159   6.537  1.00  0.00    +0.086 C 
ATOM     11  C   UNL     1      20.858  40.647   3.897  1.00  0.00    +0.038 C 
ATOM     12  C   UNL     1      21.902  42.218   5.611  1.00  0.00    +0.038 C 
ATOM     13  C   UNL     1      19.406  39.722   6.936  1.00  0.00    +0.105 C 
BRANCH   7  14
ATOM     14  N   UNL     1      21.459  42.957   3.321  1.00  0.00    -0.325 NA
ATOM     15  H   UNL     1      21.661  43.814   3.838  1.00  0.00    +0.119 HD
ATOM     16  H   UNL     1      22.026  43.012   2.474  1.00  0.00    +0.119 HD
ENDBRANCH   7  14
ENDBRANCH   1   7
BRANCH   4  17
ATOM     17  C   UNL     1      26.797  39.883   1.809  1.00  0.00    +0.149 A 
ATOM     18  C   UNL     1      27.114  38.519   1.848  1.00  0.00    +0.158 A 
ATOM     19  N   UNL     1      27.606  40.722   1.122  1.00  0.00    -0.210 NA
ATOM     20  N   UNL     1      28.207  37.965   1.270  1.00  0.00    -0.248 NA
ATOM     21  C   UNL     1      28.704  40.212   0.523  1.00  0.00    +0.152 A 
ATOM     22  C   UNL     1      29.007  38.837   0.609  1.00  0.00    +0.113 A 
BRANCH  21  23
ATOM     23  N   UNL     1      29.513  41.124  -0.178  1.00  0.00    -0.382 N 
ATOM     24  H   UNL     1      29.730  41.913   0.425  1.00  0.00    +0.158 HD
ATOM     25  H   UNL     1      28.994  41.495  -0.972  1.00  0.00    +0.158 HD
ENDBRANCH  21  23
BRANCH  22  26
ATOM     26  C   UNL     1      30.197  38.239  -0.011  1.00  0.00    +0.012 A 
ATOM     27  C   UNL     1      31.392  38.173   0.731  1.00  0.00    +0.011 A 
ATOM     28  C   UNL     1      30.179  37.730  -1.333  1.00  0.00    -0.007 A 
ATOM     29  C   UNL     1      32.545  37.602   0.192  1.00  0.00    +0.001 A 
ATOM     30  C   UNL     1      31.354  37.161  -1.859  1.00  0.00    +0.009 A 
ATOM     31  C   UNL     1      32.525  37.093  -1.102  1.00  0.00    +0.001 A 
BRANCH  28  32
ATOM     32  C   UNL     1      28.973  37.796  -2.183  1.00  0.00    +0.002 A 
ATOM     33  C   UNL     1      28.000  36.786  -2.051  1.00  0.00    +0.010 A 
ATOM     34  C   UNL     1      28.750  38.825  -3.124  1.00  0.00    +0.067 A 
ATOM     35  C   UNL     1      26.840  36.792  -2.825  1.00  0.00    +0.002 A 
ATOM     36  C   UNL     1      27.578  38.827  -3.900  1.00  0.00    +0.060 A 
ATOM     37  C   UNL     1      26.629  37.812  -3.747  1.00  0.00    +0.022 A 
ATOM     38 Cl   UNL     1      29.938  40.079  -3.328  1.00  0.00    -0.082 Cl
ATOM     39 Cl   UNL     1      27.237  40.056  -5.069  1.00  0.00    -0.083 Cl
ENDBRANCH  28  32
ENDBRANCH  22  26
ENDBRANCH   4  17
TORSDOF 6
ENDMDL
