REMARK SMILES Nc1nc(N2CCC(C3(N)CCNCC3)CC2)cnc1-c1cccc(F)c1Cl
REMARK SMILES IDX 5 1 6 2 7 3 8 4 16 5 17 6 4 7 2 8 3 9 20 10 19 11 18 12 1 13
REMARK SMILES IDX 21 16 22 17 27 18 23 19 25 20 24 21 28 22 26 23 9 24 11 25
REMARK SMILES IDX 15 26 12 27 14 28 13 29 10 31
REMARK H PARENT 1 14 1 15 13 30 10 32 10 33
ROOT
ATOM      1  N   UNL     1       0.212   1.249  -0.662  1.00  0.00    -0.355 N 
ATOM      2  C   UNL     1      -0.534   0.545  -1.713  1.00  0.00    +0.118 C 
ATOM      3  C   UNL     1      -2.041   0.613  -1.465  1.00  0.00    +0.027 C 
ATOM      4  C   UNL     1      -2.421  -0.038  -0.111  1.00  0.00    +0.012 C 
ATOM      5  C   UNL     1      -1.377   0.332   0.981  1.00  0.00    +0.027 C 
ATOM      6  C   UNL     1      -0.517   1.529   0.583  1.00  0.00    +0.118 C 
ENDROOT
BRANCH   1   7
ATOM      7  C   UNL     1       1.552   0.856  -0.523  1.00  0.00    +0.149 A 
ATOM      8  C   UNL     1       3.358   0.252   0.802  1.00  0.00    +0.152 A 
ATOM      9  N   UNL     1       2.061   0.616   0.707  1.00  0.00    -0.210 NA
ATOM     10  C   UNL     1       4.179   0.132  -0.335  1.00  0.00    +0.114 A 
ATOM     11  N   UNL     1       3.692   0.336  -1.583  1.00  0.00    -0.248 NA
ATOM     12  C   UNL     1       2.391   0.716  -1.637  1.00  0.00    +0.158 A 
BRANCH   8  13
ATOM     13  N   UNL     1       3.811   0.009   2.102  1.00  0.00    -0.382 N 
ATOM     14  H   UNL     1       3.011   0.128   2.720  1.00  0.00    +0.158 HD
ATOM     15  H   UNL     1       4.233  -0.907   2.193  1.00  0.00    +0.158 HD
ENDBRANCH   8  13
BRANCH  10  16
ATOM     16  C   UNL     1       5.591  -0.262  -0.278  1.00  0.00    +0.026 A 
ATOM     17  C   UNL     1       5.959  -1.547  -0.731  1.00  0.00    +0.012 A 
ATOM     18  C   UNL     1       6.604   0.590   0.198  1.00  0.00    +0.086 A 
ATOM     19  C   UNL     1       7.286  -1.981  -0.691  1.00  0.00    +0.004 A 
ATOM     20  C   UNL     1       7.929   0.144   0.233  1.00  0.00    +0.142 A 
ATOM     21  C   UNL     1       8.273  -1.133  -0.202  1.00  0.00    +0.041 A 
ATOM     22 Cl   UNL     1       6.273   2.209   0.716  1.00  0.00    -0.080 Cl
ATOM     23  F   UNL     1       8.908   0.943   0.687  1.00  0.00    -0.205 F 
ENDBRANCH  10  16
ENDBRANCH   1   7
BRANCH   4  24
ATOM     24  C   UNL     1      -3.910   0.230   0.322  1.00  0.00    +0.021 C 
ATOM     25  C   UNL     1      -4.309  -0.647   1.545  1.00  0.00    +0.038 C 
ATOM     26  C   UNL     1      -4.881  -0.060  -0.856  1.00  0.00    +0.038 C 
ATOM     27  C   UNL     1      -5.001  -1.939   1.113  1.00  0.00    +0.083 C 
ATOM     28  C   UNL     1      -6.273  -0.459  -0.374  1.00  0.00    +0.083 C 
ATOM     29  N   UNL     1      -6.266  -1.685   0.422  1.00  0.00    -0.317 NA
ATOM     30  H   UNL     1      -6.501  -2.490  -0.158  1.00  0.00    +0.122 HD
BRANCH  24  31
ATOM     31  N   UNL     1      -4.030   1.645   0.728  1.00  0.00    -0.325 NA
ATOM     32  H   UNL     1      -3.909   2.261  -0.075  1.00  0.00    +0.119 HD
ATOM     33  H   UNL     1      -4.971   1.827   1.078  1.00  0.00    +0.119 HD
ENDBRANCH  24  31
ENDBRANCH   4  24
TORSDOF 5
