REMARK SMILES Nc1nc(N2CCC(N3CC[C@@H](N)C3)CC2)cnc1-c1ccccc1-c1cccc(Cl)c1F
REMARK SMILES IDX 2 1 3 2 4 3 17 4 18 5 19 6 1 7 20 10 21 11 25 12 22 13 24 14
REMARK SMILES IDX 23 15 26 16 27 17 32 18 28 19 30 20 29 21 33 22 31 23 5 24
REMARK SMILES IDX 6 25 16 26 7 27 15 28 8 29 9 30 10 31 14 32 11 33 12 34
REMARK SMILES IDX 13 35
REMARK H PARENT 1 8 1 9 13 36 13 37
ROOT
ATOM      1  C   UNL     1       2.409   1.344   0.015  1.00  0.00    +0.152 A 
ATOM      2  N   UNL     1       1.127   1.099   0.363  1.00  0.00    -0.210 NA
ATOM      3  C   UNL     1       0.333   0.427  -0.506  1.00  0.00    +0.149 A 
ATOM      4  C   UNL     1       0.877   0.051  -1.738  1.00  0.00    +0.158 A 
ATOM      5  N   UNL     1       2.164   0.262  -2.116  1.00  0.00    -0.248 NA
ATOM      6  C   UNL     1       2.941   0.902  -1.208  1.00  0.00    +0.113 A 
ENDROOT
BRANCH   1   7
ATOM      7  N   UNL     1       3.151   2.031   0.977  1.00  0.00    -0.382 N 
ATOM      8  H   UNL     1       2.512   2.310   1.715  1.00  0.00    +0.158 HD
ATOM      9  H   UNL     1       3.663   2.813   0.583  1.00  0.00    +0.158 HD
ENDBRANCH   1   7
BRANCH   6  10
ATOM     10  C   UNL     1       4.332   1.137  -1.639  1.00  0.00    +0.012 A 
ATOM     11  C   UNL     1       4.551   1.954  -2.770  1.00  0.00    +0.011 A 
ATOM     12  C   UNL     1       5.457   0.583  -0.972  1.00  0.00    -0.006 A 
ATOM     13  C   UNL     1       5.839   2.244  -3.224  1.00  0.00    +0.001 A 
ATOM     14  C   UNL     1       6.749   0.895  -1.447  1.00  0.00    +0.009 A 
ATOM     15  C   UNL     1       6.938   1.717  -2.558  1.00  0.00    +0.001 A 
BRANCH  12  16
ATOM     16  C   UNL     1       5.333  -0.330   0.181  1.00  0.00    +0.020 A 
ATOM     17  C   UNL     1       4.708  -1.584   0.043  1.00  0.00    +0.012 A 
ATOM     18  C   UNL     1       5.835   0.020   1.446  1.00  0.00    +0.149 A 
ATOM     19  C   UNL     1       4.579  -2.449   1.133  1.00  0.00    +0.002 A 
ATOM     20  C   UNL     1       5.704  -0.841   2.536  1.00  0.00    +0.077 A 
ATOM     21  C   UNL     1       5.076  -2.077   2.382  1.00  0.00    +0.023 A 
ATOM     22  F   UNL     1       6.448   1.207   1.609  1.00  0.00    -0.205 F 
ATOM     23 Cl   UNL     1       6.319  -0.397   4.085  1.00  0.00    -0.081 Cl
ENDBRANCH  12  16
ENDBRANCH   6  10
BRANCH   3  24
ATOM     24  N   UNL     1      -1.004   0.205  -0.156  1.00  0.00    -0.355 N 
ATOM     25  C   UNL     1      -1.347   0.627   1.213  1.00  0.00    +0.120 C 
ATOM     26  C   UNL     1      -1.701  -0.981  -0.643  1.00  0.00    +0.120 C 
ATOM     27  C   UNL     1      -2.745   0.157   1.624  1.00  0.00    +0.040 C 
ATOM     28  C   UNL     1      -3.207  -0.700  -0.711  1.00  0.00    +0.040 C 
ATOM     29  C   UNL     1      -3.710   0.207   0.433  1.00  0.00    +0.060 C 
BRANCH  29  30
ATOM     30  N   UNL     1      -5.098  -0.029   0.848  1.00  0.00    -0.299 NA
ATOM     31  C   UNL     1      -5.393  -1.285   1.535  1.00  0.00    +0.086 C 
ATOM     32  C   UNL     1      -6.117   0.183  -0.187  1.00  0.00    +0.103 C 
ATOM     33  C   UNL     1      -6.912  -1.327   1.511  1.00  0.00    +0.035 C 
ATOM     34  C   UNL     1      -7.221  -0.854   0.099  1.00  0.00    +0.066 C 
BRANCH  34  35
ATOM     35  N   UNL     1      -8.591  -0.376  -0.046  1.00  0.00    -0.326 NA
ATOM     36  H   UNL     1      -8.717   0.030  -0.973  1.00  0.00    +0.119 HD
ATOM     37  H   UNL     1      -8.753   0.386   0.614  1.00  0.00    +0.119 HD
ENDBRANCH  34  35
ENDBRANCH  29  30
ENDBRANCH   3  24
TORSDOF 6
