MODEL 1
REMARK VINA RESULT:    -9.271      0.000      0.000
REMARK INTER + INTRA:         -13.300
REMARK INTER:                 -11.980
REMARK INTRA:                  -1.319
REMARK UNBOUND:                -1.319
REMARK SMILES Nc1nc(N2CCC(C3(N)CCNCC3)CC2)cnc1-c1ccccc1-c1ncccc1Cl
REMARK SMILES IDX 2 1 3 2 4 3 18 4 19 5 20 6 1 7 21 10 22 11 26 12 23 13 25 14
REMARK SMILES IDX 24 15 27 16 28 17 32 18 29 19 31 20 30 21 33 22 5 23 6 24
REMARK SMILES IDX 17 25 7 26 16 27 8 28 9 29 11 30 15 31 12 32 14 33 13 34
REMARK SMILES IDX 10 36
REMARK H PARENT 1 8 1 9 13 35 10 37 10 38
ROOT
ATOM      1  C   UNL     1      26.536  40.645   2.899  1.00  0.00    +0.152 A 
ATOM      2  N   UNL     1      25.503  40.503   3.757  1.00  0.00    -0.210 NA
ATOM      3  C   UNL     1      24.361  41.185   3.511  1.00  0.00    +0.149 A 
ATOM      4  C   UNL     1      24.302  42.020   2.391  1.00  0.00    +0.158 A 
ATOM      5  N   UNL     1      25.309  42.182   1.499  1.00  0.00    -0.248 NA
ATOM      6  C   UNL     1      26.434  41.476   1.762  1.00  0.00    +0.113 A 
ENDROOT
BRANCH   1   7
ATOM      7  N   UNL     1      27.684  39.882   3.182  1.00  0.00    -0.382 N 
ATOM      8  H   UNL     1      27.435  39.160   3.857  1.00  0.00    +0.158 HD
ATOM      9  H   UNL     1      27.995  39.407   2.341  1.00  0.00    +0.158 HD
ENDBRANCH   1   7
BRANCH   6  10
ATOM     10  C   UNL     1      27.531  41.670   0.798  1.00  0.00    +0.013 A 
ATOM     11  C   UNL     1      28.368  42.797   0.938  1.00  0.00    +0.011 A 
ATOM     12  C   UNL     1      27.759  40.780  -0.282  1.00  0.00    +0.011 A 
ATOM     13  C   UNL     1      29.415  43.038   0.049  1.00  0.00    +0.001 A 
ATOM     14  C   UNL     1      28.817  41.051  -1.175  1.00  0.00    +0.011 A 
ATOM     15  C   UNL     1      29.641  42.163  -1.007  1.00  0.00    +0.001 A 
BRANCH  12  16
ATOM     16  C   UNL     1      26.929  39.586  -0.520  1.00  0.00    +0.089 A 
ATOM     17  N   UNL     1      25.788  39.831  -1.225  1.00  0.00    -0.255 NA
ATOM     18  C   UNL     1      27.283  38.297  -0.109  1.00  0.00    +0.067 A 
ATOM     19  C   UNL     1      24.967  38.789  -1.473  1.00  0.00    +0.112 A 
ATOM     20  C   UNL     1      26.415  37.241  -0.388  1.00  0.00    +0.024 A 
ATOM     21  C   UNL     1      25.232  37.490  -1.076  1.00  0.00    +0.022 A 
ATOM     22 Cl   UNL     1      28.774  37.942   0.686  1.00  0.00    -0.082 Cl
ENDBRANCH  12  16
ENDBRANCH   6  10
BRANCH   3  23
ATOM     23  N   UNL     1      23.269  41.063   4.392  1.00  0.00    -0.355 N 
ATOM     24  C   UNL     1      23.058  39.706   4.894  1.00  0.00    +0.118 C 
ATOM     25  C   UNL     1      22.066  41.781   3.951  1.00  0.00    +0.118 C 
ATOM     26  C   UNL     1      22.140  39.745   6.121  1.00  0.00    +0.027 C 
ATOM     27  C   UNL     1      20.787  41.194   4.560  1.00  0.00    +0.027 C 
ATOM     28  C   UNL     1      21.003  40.795   6.031  1.00  0.00    +0.012 C 
BRANCH  28  29
ATOM     29  C   UNL     1      19.697  40.360   6.783  1.00  0.00    +0.021 C 
ATOM     30  C   UNL     1      19.357  41.299   7.975  1.00  0.00    +0.038 C 
ATOM     31  C   UNL     1      18.485  40.303   5.823  1.00  0.00    +0.038 C 
ATOM     32  C   UNL     1      17.851  41.514   8.175  1.00  0.00    +0.083 C 
ATOM     33  C   UNL     1      17.183  39.886   6.524  1.00  0.00    +0.083 C 
ATOM     34  N   UNL     1      17.085  40.295   7.932  1.00  0.00    -0.317 NA
ATOM     35  H   UNL     1      17.523  39.549   8.480  1.00  0.00    +0.122 HD
BRANCH  29  36
ATOM     36  N   UNL     1      19.890  38.988   7.311  1.00  0.00    -0.325 NA
ATOM     37  H   UNL     1      20.007  39.000   8.321  1.00  0.00    +0.119 HD
ATOM     38  H   UNL     1      20.743  38.585   6.923  1.00  0.00    +0.119 HD
ENDBRANCH  29  36
ENDBRANCH  28  29
ENDBRANCH   3  23
TORSDOF 6
ENDMDL
