REMARK SMILES Nc1nc(N2CCC(C3(N)CCNCC3)CC2)cnc1-c1ccccc1-c1cccc(C(F)(F)F)c1
REMARK SMILES IDX 2 1 3 2 4 3 18 4 19 5 20 6 1 7 21 10 22 11 26 12 23 13 25 14
REMARK SMILES IDX 24 15 27 16 28 17 36 18 29 19 31 20 30 21 32 22 33 23 34 24
REMARK SMILES IDX 35 25 5 26 6 27 17 28 7 29 16 30 8 31 9 32 11 33 15 34 12 35
REMARK SMILES IDX 14 36 13 37 10 39
REMARK H PARENT 1 8 1 9 13 38 10 40 10 41
ROOT
ATOM      1  C   UNL     1       2.412  -0.596   1.046  1.00  0.00    +0.152 A 
ATOM      2  N   UNL     1       1.143  -0.147   0.925  1.00  0.00    -0.210 NA
ATOM      3  C   UNL     1       0.318  -0.813   0.085  1.00  0.00    +0.149 A 
ATOM      4  C   UNL     1       0.804  -1.922  -0.620  1.00  0.00    +0.158 A 
ATOM      5  N   UNL     1       2.065  -2.407  -0.513  1.00  0.00    -0.248 NA
ATOM      6  C   UNL     1       2.880  -1.708   0.319  1.00  0.00    +0.113 A 
ENDROOT
BRANCH   1   7
ATOM      7  N   UNL     1       3.216   0.138   1.925  1.00  0.00    -0.382 N 
ATOM      8  H   UNL     1       2.625   0.840   2.363  1.00  0.00    +0.158 HD
ATOM      9  H   UNL     1       3.686  -0.459   2.595  1.00  0.00    +0.158 HD
ENDBRANCH   1   7
BRANCH   6  10
ATOM     10  C   UNL     1       4.256  -2.217   0.415  1.00  0.00    +0.012 A 
ATOM     11  C   UNL     1       4.490  -3.412   1.126  1.00  0.00    +0.011 A 
ATOM     12  C   UNL     1       5.356  -1.547  -0.177  1.00  0.00    -0.009 A 
ATOM     13  C   UNL     1       5.779  -3.923   1.278  1.00  0.00    +0.001 A 
ATOM     14  C   UNL     1       6.649  -2.080  -0.008  1.00  0.00    +0.009 A 
ATOM     15  C   UNL     1       6.859  -3.253   0.716  1.00  0.00    +0.001 A 
BRANCH  12  16
ATOM     16  C   UNL     1       5.194  -0.326  -0.985  1.00  0.00    -0.017 A 
ATOM     17  C   UNL     1       4.602  -0.382  -2.256  1.00  0.00    +0.009 A 
ATOM     18  C   UNL     1       5.630   0.918  -0.504  1.00  0.00    +0.021 A 
ATOM     19  C   UNL     1       4.447   0.772  -3.024  1.00  0.00    +0.001 A 
ATOM     20  C   UNL     1       5.466   2.091  -1.260  1.00  0.00    +0.056 A 
ATOM     21  C   UNL     1       4.880   2.003  -2.530  1.00  0.00    +0.013 A 
BRANCH  20  22
ATOM     22  C   UNL     1       5.947   3.417  -0.728  1.00  0.00    +0.416 C 
ATOM     23  F   UNL     1       5.870   3.515   0.628  1.00  0.00    -0.166 F 
ATOM     24  F   UNL     1       7.250   3.658  -1.042  1.00  0.00    -0.166 F 
ATOM     25  F   UNL     1       5.245   4.478  -1.215  1.00  0.00    -0.166 F 
ENDBRANCH  20  22
ENDBRANCH  12  16
ENDBRANCH   6  10
BRANCH   3  26
ATOM     26  N   UNL     1      -1.016  -0.377  -0.099  1.00  0.00    -0.355 N 
ATOM     27  C   UNL     1      -1.992  -1.379   0.351  1.00  0.00    +0.118 C 
ATOM     28  C   UNL     1      -1.246   0.962   0.461  1.00  0.00    +0.118 C 
ATOM     29  C   UNL     1      -3.400  -0.930  -0.049  1.00  0.00    +0.027 C 
ATOM     30  C   UNL     1      -2.644   1.451   0.071  1.00  0.00    +0.027 C 
ATOM     31  C   UNL     1      -3.741   0.463   0.535  1.00  0.00    +0.012 C 
BRANCH  31  32
ATOM     32  C   UNL     1      -5.208   0.939   0.221  1.00  0.00    +0.021 C 
ATOM     33  C   UNL     1      -5.509   1.012  -1.292  1.00  0.00    +0.038 C 
ATOM     34  C   UNL     1      -6.254   0.015   0.917  1.00  0.00    +0.038 C 
ATOM     35  C   UNL     1      -6.968   1.383  -1.597  1.00  0.00    +0.083 C 
ATOM     36  C   UNL     1      -7.427  -0.369   0.011  1.00  0.00    +0.083 C 
ATOM     37  N   UNL     1      -7.963   0.792  -0.694  1.00  0.00    -0.317 NA
ATOM     38  H   UNL     1      -8.183   1.502   0.011  1.00  0.00    +0.122 HD
BRANCH  32  39
ATOM     39  N   UNL     1      -5.405   2.292   0.790  1.00  0.00    -0.325 NA
ATOM     40  H   UNL     1      -5.091   2.318   1.759  1.00  0.00    +0.119 HD
ATOM     41  H   UNL     1      -4.848   2.979   0.283  1.00  0.00    +0.119 HD
ENDBRANCH  32  39
ENDBRANCH  31  32
ENDBRANCH   3  26
TORSDOF 7
