MODEL 1
REMARK VINA RESULT:    -8.959      0.000      0.000
REMARK INTER + INTRA:         -13.043
REMARK INTER:                 -11.578
REMARK INTRA:                  -1.465
REMARK UNBOUND:                -1.465
REMARK SMILES CN1CCC(N)(C2CCN(c3cnc(-c4ccccc4-c4cccc(Cl)c4F)c(N)n3)CC2)CC1
REMARK SMILES IDX 7 1 8 2 9 3 10 4 32 5 33 6 5 7 2 8 3 9 35 10 4 11 34 12 1 13
REMARK SMILES IDX 6 14 11 17 12 18 31 19 13 20 29 21 14 22 30 23 15 26 16 27
REMARK SMILES IDX 20 28 17 29 19 30 18 31 21 32 22 33 27 34 23 35 25 36 24 37
REMARK SMILES IDX 28 38 26 39
REMARK H PARENT 6 15 6 16 30 24 30 25
ROOT
ATOM      1  C   UNL     1      22.959  40.762   3.322  1.00  0.00    +0.012 C 
ATOM      2  C   UNL     1      23.886  40.065   4.350  1.00  0.00    +0.027 C 
ATOM      3  C   UNL     1      25.379  40.135   3.990  1.00  0.00    +0.118 C 
ATOM      4  N   UNL     1      25.543  40.156   2.541  1.00  0.00    -0.355 N 
ATOM      5  C   UNL     1      24.936  41.301   1.840  1.00  0.00    +0.118 C 
ATOM      6  C   UNL     1      23.753  41.880   2.624  1.00  0.00    +0.027 C 
ENDROOT
BRANCH   1   7
ATOM      7  C   UNL     1      21.580  41.223   3.908  1.00  0.00    +0.021 C 
ATOM      8  N   UNL     1      19.565  41.133   6.068  1.00  0.00    -0.306 NA
ATOM      9  C   UNL     1      19.301  40.439   4.802  1.00  0.00    +0.086 C 
ATOM     10  C   UNL     1      20.983  41.187   6.418  1.00  0.00    +0.086 C 
ATOM     11  C   UNL     1      20.557  40.072   3.999  1.00  0.00    +0.038 C 
ATOM     12  C   UNL     1      21.774  41.883   5.307  1.00  0.00    +0.038 C 
ATOM     13  C   UNL     1      18.769  40.575   7.162  1.00  0.00    +0.105 C 
BRANCH   7  14
ATOM     14  N   UNL     1      21.035  42.253   2.993  1.00  0.00    -0.325 NA
ATOM     15  H   UNL     1      21.580  42.253   2.126  1.00  0.00    +0.119 HD
ATOM     16  H   UNL     1      20.088  41.994   2.712  1.00  0.00    +0.119 HD
ENDBRANCH   7  14
ENDBRANCH   1   7
BRANCH   4  17
ATOM     17  C   UNL     1      26.718  39.688   1.952  1.00  0.00    +0.149 A 
ATOM     18  C   UNL     1      27.110  38.346   1.987  1.00  0.00    +0.158 A 
ATOM     19  N   UNL     1      27.484  40.560   1.253  1.00  0.00    -0.210 NA
ATOM     20  N   UNL     1      28.230  37.849   1.399  1.00  0.00    -0.248 NA
ATOM     21  C   UNL     1      28.598  40.109   0.637  1.00  0.00    +0.152 A 
ATOM     22  C   UNL     1      28.975  38.756   0.723  1.00  0.00    +0.113 A 
BRANCH  21  23
ATOM     23  N   UNL     1      29.342  41.061  -0.084  1.00  0.00    -0.382 N 
ATOM     24  H   UNL     1      29.976  40.585  -0.718  1.00  0.00    +0.158 HD
ATOM     25  H   UNL     1      29.922  41.596   0.561  1.00  0.00    +0.158 HD
ENDBRANCH  21  23
BRANCH  22  26
ATOM     26  C   UNL     1      30.169  38.211   0.063  1.00  0.00    +0.012 A 
ATOM     27  C   UNL     1      31.388  38.190   0.768  1.00  0.00    +0.011 A 
ATOM     28  C   UNL     1      30.132  37.710  -1.260  1.00  0.00    -0.006 A 
ATOM     29  C   UNL     1      32.545  37.662   0.193  1.00  0.00    +0.001 A 
ATOM     30  C   UNL     1      31.308  37.175  -1.820  1.00  0.00    +0.009 A 
ATOM     31  C   UNL     1      32.503  37.149  -1.100  1.00  0.00    +0.001 A 
BRANCH  28  32
ATOM     32  C   UNL     1      28.913  37.762  -2.082  1.00  0.00    +0.020 A 
ATOM     33  C   UNL     1      27.993  36.699  -2.051  1.00  0.00    +0.012 A 
ATOM     34  C   UNL     1      28.643  38.853  -2.919  1.00  0.00    +0.149 A 
ATOM     35  C   UNL     1      26.834  36.733  -2.832  1.00  0.00    +0.002 A 
ATOM     36  C   UNL     1      27.485  38.891  -3.697  1.00  0.00    +0.077 A 
ATOM     37  C   UNL     1      26.579  37.831  -3.654  1.00  0.00    +0.023 A 
ATOM     38  F   UNL     1      29.533  39.859  -2.988  1.00  0.00    -0.205 F 
ATOM     39 Cl   UNL     1      27.164  40.235  -4.726  1.00  0.00    -0.081 Cl
ENDBRANCH  28  32
ENDBRANCH  22  26
ENDBRANCH   4  17
TORSDOF 6
ENDMDL
