REMARK SMILES Nc1nc(N2CCC(N3CC(N)C3)CC2)cnc1-c1ccccc1-c1cccc(Cl)c1F
REMARK SMILES IDX 2 1 3 2 4 3 16 4 17 5 18 6 1 7 19 10 20 11 24 12 21 13 23 14
REMARK SMILES IDX 22 15 25 16 26 17 31 18 27 19 29 20 28 21 32 22 30 23 5 24
REMARK SMILES IDX 6 25 15 26 7 27 14 28 8 29 9 30 10 31 13 32 11 33 12 34
REMARK H PARENT 1 8 1 9 12 35 12 36
ROOT
ATOM      1  C   UNL     1       2.014   1.168  -0.004  1.00  0.00    +0.152 A 
ATOM      2  N   UNL     1       0.720   1.017  -0.366  1.00  0.00    -0.210 NA
ATOM      3  C   UNL     1      -0.125   0.426   0.510  1.00  0.00    +0.149 A 
ATOM      4  C   UNL     1       0.368   0.033   1.760  1.00  0.00    +0.158 A 
ATOM      5  N   UNL     1       1.659   0.162   2.156  1.00  0.00    -0.248 NA
ATOM      6  C   UNL     1       2.492   0.722   1.242  1.00  0.00    +0.113 A 
ENDROOT
BRANCH   1   7
ATOM      7  N   UNL     1       2.829   1.756  -0.973  1.00  0.00    -0.382 N 
ATOM      8  H   UNL     1       2.236   2.058  -1.740  1.00  0.00    +0.158 HD
ATOM      9  H   UNL     1       3.403   2.502  -0.596  1.00  0.00    +0.158 HD
ENDBRANCH   1   7
BRANCH   6  10
ATOM     10  C   UNL     1       3.892   0.857   1.681  1.00  0.00    +0.012 A 
ATOM     11  C   UNL     1       4.175   1.732   2.751  1.00  0.00    +0.011 A 
ATOM     12  C   UNL     1       4.963   0.150   1.075  1.00  0.00    -0.006 A 
ATOM     13  C   UNL     1       5.479   1.935   3.201  1.00  0.00    +0.001 A 
ATOM     14  C   UNL     1       6.274   0.377   1.544  1.00  0.00    +0.009 A 
ATOM     15  C   UNL     1       6.530   1.261   2.592  1.00  0.00    +0.001 A 
BRANCH  12  16
ATOM     16  C   UNL     1       4.757  -0.833  -0.007  1.00  0.00    +0.020 A 
ATOM     17  C   UNL     1       4.001  -1.998   0.215  1.00  0.00    +0.012 A 
ATOM     18  C   UNL     1       5.309  -0.640  -1.284  1.00  0.00    +0.149 A 
ATOM     19  C   UNL     1       3.791  -2.928  -0.806  1.00  0.00    +0.002 A 
ATOM     20  C   UNL     1       5.100  -1.568  -2.306  1.00  0.00    +0.077 A 
ATOM     21  C   UNL     1       4.340  -2.713  -2.070  1.00  0.00    +0.023 A 
ATOM     22  F   UNL     1       6.050   0.455  -1.527  1.00  0.00    -0.205 F 
ATOM     23 Cl   UNL     1       5.780  -1.319  -3.870  1.00  0.00    -0.081 Cl
ENDBRANCH  12  16
ENDBRANCH   6  10
BRANCH   3  24
ATOM     24  N   UNL     1      -1.466   0.270   0.159  1.00  0.00    -0.355 N 
ATOM     25  C   UNL     1      -1.866   0.878  -1.112  1.00  0.00    +0.120 C 
ATOM     26  C   UNL     1      -2.174  -0.940   0.594  1.00  0.00    +0.120 C 
ATOM     27  C   UNL     1      -3.386   0.822  -1.241  1.00  0.00    +0.040 C 
ATOM     28  C   UNL     1      -2.914  -1.599  -0.565  1.00  0.00    +0.040 C 
ATOM     29  C   UNL     1      -3.878  -0.639  -1.291  1.00  0.00    +0.060 C 
BRANCH  29  30
ATOM     30  N   UNL     1      -5.269  -0.932  -0.911  1.00  0.00    -0.297 NA
ATOM     31  C   UNL     1      -6.271  -0.050  -1.540  1.00  0.00    +0.104 C 
ATOM     32  C   UNL     1      -5.675  -0.476   0.432  1.00  0.00    +0.104 C 
ATOM     33  C   UNL     1      -6.993   0.064  -0.175  1.00  0.00    +0.079 C 
BRANCH  33  34
ATOM     34  N   UNL     1      -8.053  -0.951  -0.073  1.00  0.00    -0.325 NA
ATOM     35  H   UNL     1      -8.416  -1.079   0.869  1.00  0.00    +0.119 HD
ATOM     36  H   UNL     1      -8.855  -0.775  -0.675  1.00  0.00    +0.119 HD
ENDBRANCH  33  34
ENDBRANCH  29  30
ENDBRANCH   3  24
TORSDOF 6
