MODEL 1
REMARK VINA RESULT:    -9.263      0.000      0.000
REMARK INTER + INTRA:         -12.654
REMARK INTER:                 -11.971
REMARK INTRA:                  -0.683
REMARK UNBOUND:                -0.683
REMARK SMILES Nc1nc(N2CCC(N3CC(N)C3)CC2)cnc1-c1ccccc1-c1cccc(Cl)c1Cl
REMARK SMILES IDX 2 1 3 2 4 3 16 4 17 5 18 6 1 7 19 10 20 11 24 12 21 13 23 14
REMARK SMILES IDX 22 15 25 16 26 17 31 18 27 19 29 20 28 21 32 22 30 23 5 24
REMARK SMILES IDX 6 25 15 26 7 27 14 28 8 29 9 30 10 31 13 32 11 33 12 34
REMARK H PARENT 1 8 1 9 12 35 12 36
ROOT
ATOM      1  C   UNL     1      26.513  40.411   2.612  1.00  0.00    +0.152 A 
ATOM      2  N   UNL     1      25.440  40.084   3.367  1.00  0.00    -0.210 NA
ATOM      3  C   UNL     1      24.275  40.727   3.115  1.00  0.00    +0.149 A 
ATOM      4  C   UNL     1      24.220  41.662   2.074  1.00  0.00    +0.158 A 
ATOM      5  N   UNL     1      25.277  42.017   1.306  1.00  0.00    -0.248 NA
ATOM      6  C   UNL     1      26.441  41.392   1.605  1.00  0.00    +0.113 A 
ENDROOT
BRANCH   1   7
ATOM      7  N   UNL     1      27.693  39.732   2.935  1.00  0.00    -0.382 N 
ATOM      8  H   UNL     1      27.864  39.065   2.187  1.00  0.00    +0.158 HD
ATOM      9  H   UNL     1      28.465  40.377   3.064  1.00  0.00    +0.158 HD
ENDBRANCH   1   7
BRANCH   6  10
ATOM     10  C   UNL     1      27.596  41.803   0.797  1.00  0.00    +0.012 A 
ATOM     11  C   UNL     1      28.444  42.819   1.280  1.00  0.00    +0.011 A 
ATOM     12  C   UNL     1      27.891  41.202  -0.453  1.00  0.00    -0.007 A 
ATOM     13  C   UNL     1      29.543  43.254   0.540  1.00  0.00    +0.001 A 
ATOM     14  C   UNL     1      29.002  41.659  -1.185  1.00  0.00    +0.009 A 
ATOM     15  C   UNL     1      29.820  42.677  -0.694  1.00  0.00    +0.001 A 
BRANCH  12  16
ATOM     16  C   UNL     1      27.070  40.107  -1.007  1.00  0.00    +0.002 A 
ATOM     17  C   UNL     1      27.022  38.882  -0.312  1.00  0.00    +0.010 A 
ATOM     18  C   UNL     1      26.334  40.231  -2.206  1.00  0.00    +0.067 A 
ATOM     19  C   UNL     1      26.281  37.804  -0.794  1.00  0.00    +0.002 A 
ATOM     20  C   UNL     1      25.591  39.140  -2.688  1.00  0.00    +0.060 A 
ATOM     21  C   UNL     1      25.568  37.933  -1.982  1.00  0.00    +0.022 A 
ATOM     22 Cl   UNL     1      26.340  41.737  -3.076  1.00  0.00    -0.082 Cl
ATOM     23 Cl   UNL     1      24.674  39.209  -4.155  1.00  0.00    -0.083 Cl
ENDBRANCH  12  16
ENDBRANCH   6  10
BRANCH   3  24
ATOM     24  N   UNL     1      23.121  40.433   3.880  1.00  0.00    -0.355 N 
ATOM     25  C   UNL     1      23.438  39.706   5.118  1.00  0.00    +0.120 C 
ATOM     26  C   UNL     1      22.288  41.627   4.093  1.00  0.00    +0.120 C 
ATOM     27  C   UNL     1      22.146  39.269   5.810  1.00  0.00    +0.040 C 
ATOM     28  C   UNL     1      20.968  41.220   4.754  1.00  0.00    +0.040 C 
ATOM     29  C   UNL     1      21.231  40.477   6.079  1.00  0.00    +0.060 C 
BRANCH  29  30
ATOM     30  N   UNL     1      20.091  40.018   6.888  1.00  0.00    -0.297 NA
ATOM     31  C   UNL     1      19.845  40.821   8.106  1.00  0.00    +0.104 C 
ATOM     32  C   UNL     1      18.749  40.383   6.377  1.00  0.00    +0.104 C 
ATOM     33  C   UNL     1      18.329  40.614   7.853  1.00  0.00    +0.079 C 
BRANCH  33  34
ATOM     34  N   UNL     1      17.601  41.880   7.990  1.00  0.00    -0.325 NA
ATOM     35  H   UNL     1      17.561  42.223   8.949  1.00  0.00    +0.119 HD
ATOM     36  H   UNL     1      17.971  42.648   7.430  1.00  0.00    +0.119 HD
ENDBRANCH  33  34
ENDBRANCH  29  30
ENDBRANCH   3  24
TORSDOF 6
ENDMDL
