REMARK SMILES Nc1nc(N2CCC(C3(N)CCNCC3)CC2)cnc1-c1ccccc1-c1ncccc1Cl
REMARK SMILES IDX 2 1 3 2 4 3 18 4 19 5 20 6 1 7 21 10 22 11 26 12 23 13 25 14
REMARK SMILES IDX 24 15 27 16 28 17 32 18 29 19 31 20 30 21 33 22 5 23 6 24
REMARK SMILES IDX 17 25 7 26 16 27 8 28 9 29 11 30 15 31 12 32 14 33 13 34
REMARK SMILES IDX 10 36
REMARK H PARENT 1 8 1 9 13 35 10 37 10 38
ROOT
ATOM      1  C   UNL     1       2.415  -1.922  -0.500  1.00  0.00    +0.152 A 
ATOM      2  N   UNL     1       1.108  -1.601  -0.383  1.00  0.00    -0.210 NA
ATOM      3  C   UNL     1       0.747  -0.697   0.556  1.00  0.00    +0.149 A 
ATOM      4  C   UNL     1       1.736  -0.146   1.377  1.00  0.00    +0.158 A 
ATOM      5  N   UNL     1       3.057  -0.431   1.286  1.00  0.00    -0.248 NA
ATOM      6  C   UNL     1       3.391  -1.327   0.328  1.00  0.00    +0.113 A 
ENDROOT
BRANCH   1   7
ATOM      7  N   UNL     1       2.737  -2.837  -1.519  1.00  0.00    -0.382 N 
ATOM      8  H   UNL     1       3.343  -2.372  -2.193  1.00  0.00    +0.158 HD
ATOM      9  H   UNL     1       3.266  -3.611  -1.129  1.00  0.00    +0.158 HD
ENDBRANCH   1   7
BRANCH   6  10
ATOM     10  C   UNL     1       4.827  -1.645   0.246  1.00  0.00    +0.013 A 
ATOM     11  C   UNL     1       5.276  -2.893   0.726  1.00  0.00    +0.011 A 
ATOM     12  C   UNL     1       5.779  -0.731  -0.273  1.00  0.00    +0.011 A 
ATOM     13  C   UNL     1       6.625  -3.245   0.684  1.00  0.00    +0.001 A 
ATOM     14  C   UNL     1       7.139  -1.104  -0.294  1.00  0.00    +0.011 A 
ATOM     15  C   UNL     1       7.557  -2.350   0.172  1.00  0.00    +0.001 A 
BRANCH  12  16
ATOM     16  C   UNL     1       5.410   0.602  -0.781  1.00  0.00    +0.089 A 
ATOM     17  N   UNL     1       5.728   1.628   0.058  1.00  0.00    -0.255 NA
ATOM     18  C   UNL     1       4.825   0.823  -2.033  1.00  0.00    +0.067 A 
ATOM     19  C   UNL     1       5.409   2.880  -0.331  1.00  0.00    +0.112 A 
ATOM     20  C   UNL     1       4.515   2.131  -2.407  1.00  0.00    +0.024 A 
ATOM     21  C   UNL     1       4.805   3.179  -1.540  1.00  0.00    +0.022 A 
ATOM     22 Cl   UNL     1       4.515  -0.446  -3.161  1.00  0.00    -0.082 Cl
ENDBRANCH  12  16
ENDBRANCH   6  10
BRANCH   3  23
ATOM     23  N   UNL     1      -0.609  -0.347   0.707  1.00  0.00    -0.355 N 
ATOM     24  C   UNL     1      -1.520  -1.121  -0.135  1.00  0.00    +0.118 C 
ATOM     25  C   UNL     1      -0.848   1.101   0.753  1.00  0.00    +0.118 C 
ATOM     26  C   UNL     1      -2.956  -0.966   0.378  1.00  0.00    +0.027 C 
ATOM     27  C   UNL     1      -2.279   1.464   0.339  1.00  0.00    +0.027 C 
ATOM     28  C   UNL     1      -3.295   0.453   0.901  1.00  0.00    +0.012 C 
BRANCH  28  29
ATOM     29  C   UNL     1      -4.796   0.853   0.682  1.00  0.00    +0.021 C 
ATOM     30  C   UNL     1      -5.140   1.071  -0.818  1.00  0.00    +0.038 C 
ATOM     31  C   UNL     1      -5.755  -0.208   1.272  1.00  0.00    +0.038 C 
ATOM     32  C   UNL     1      -6.556   0.614  -1.195  1.00  0.00    +0.083 C 
ATOM     33  C   UNL     1      -7.237   0.145   1.072  1.00  0.00    +0.083 C 
ATOM     34  N   UNL     1      -7.527   0.914  -0.146  1.00  0.00    -0.317 NA
ATOM     35  H   UNL     1      -7.409   1.901   0.101  1.00  0.00    +0.122 HD
BRANCH  29  36
ATOM     36  N   UNL     1      -5.058   2.118   1.409  1.00  0.00    -0.325 NA
ATOM     37  H   UNL     1      -4.518   2.884   1.013  1.00  0.00    +0.119 HD
ATOM     38  H   UNL     1      -4.764   2.026   2.382  1.00  0.00    +0.119 HD
ENDBRANCH  29  36
ENDBRANCH  28  29
ENDBRANCH   3  23
TORSDOF 6
