REMARK SMILES Nc1nc(N2CCC(N3CC(N)C3)CC2)cnc1-c1ccccc1-c1ncccc1Cl
REMARK SMILES IDX 2 1 3 2 4 3 16 4 17 5 18 6 1 7 19 10 20 11 24 12 21 13 23 14
REMARK SMILES IDX 22 15 25 16 26 17 30 18 27 19 29 20 28 21 31 22 5 23 6 24
REMARK SMILES IDX 15 25 7 26 14 27 8 28 9 29 10 30 13 31 11 32 12 33
REMARK H PARENT 1 8 1 9 12 34 12 35
ROOT
ATOM      1  C   UNL     1       2.074   0.258  -1.404  1.00  0.00    +0.152 A 
ATOM      2  N   UNL     1       0.782  -0.118  -1.272  1.00  0.00    -0.210 NA
ATOM      3  C   UNL     1       0.009   0.538  -0.379  1.00  0.00    +0.149 A 
ATOM      4  C   UNL     1       0.567   1.590   0.357  1.00  0.00    +0.158 A 
ATOM      5  N   UNL     1       1.857   1.995   0.264  1.00  0.00    -0.248 NA
ATOM      6  C   UNL     1       2.613   1.306  -0.626  1.00  0.00    +0.113 A 
ENDROOT
BRANCH   1   7
ATOM      7  N   UNL     1       2.844  -0.466  -2.336  1.00  0.00    -0.382 N 
ATOM      8  H   UNL     1       3.284   0.184  -2.981  1.00  0.00    +0.158 HD
ATOM      9  H   UNL     1       3.611  -0.913  -1.821  1.00  0.00    +0.158 HD
ENDBRANCH   1   7
BRANCH   6  10
ATOM     10  C   UNL     1       4.006   1.770  -0.736  1.00  0.00    +0.013 A 
ATOM     11  C   UNL     1       4.261   3.007  -1.361  1.00  0.00    +0.011 A 
ATOM     12  C   UNL     1       5.098   1.027  -0.225  1.00  0.00    +0.011 A 
ATOM     13  C   UNL     1       5.562   3.490  -1.507  1.00  0.00    +0.001 A 
ATOM     14  C   UNL     1       6.404   1.528  -0.390  1.00  0.00    +0.011 A 
ATOM     15  C   UNL     1       6.634   2.748  -1.026  1.00  0.00    +0.001 A 
BRANCH  12  16
ATOM     16  C   UNL     1       4.907  -0.255   0.469  1.00  0.00    +0.089 A 
ATOM     17  N   UNL     1       4.837  -1.329  -0.370  1.00  0.00    -0.255 NA
ATOM     18  C   UNL     1       4.795  -0.376   1.857  1.00  0.00    +0.067 A 
ATOM     19  C   UNL     1       4.647  -2.544   0.194  1.00  0.00    +0.112 A 
ATOM     20  C   UNL     1       4.600  -1.645   2.401  1.00  0.00    +0.024 A 
ATOM     21  C   UNL     1       4.524  -2.749   1.557  1.00  0.00    +0.022 A 
ATOM     22 Cl   UNL     1       4.885   0.975   2.925  1.00  0.00    -0.082 Cl
ENDBRANCH  12  16
ENDBRANCH   6  10
BRANCH   3  23
ATOM     23  N   UNL     1      -1.346   0.177  -0.221  1.00  0.00    -0.355 N 
ATOM     24  C   UNL     1      -1.801  -0.831  -1.181  1.00  0.00    +0.120 C 
ATOM     25  C   UNL     1      -1.722  -0.075   1.178  1.00  0.00    +0.120 C 
ATOM     26  C   UNL     1      -3.332  -0.881  -1.198  1.00  0.00    +0.040 C 
ATOM     27  C   UNL     1      -2.998  -0.916   1.281  1.00  0.00    +0.040 C 
ATOM     28  C   UNL     1      -3.982  -0.542   0.163  1.00  0.00    +0.060 C 
BRANCH  28  29
ATOM     29  N   UNL     1      -5.260  -1.276   0.324  1.00  0.00    -0.297 NA
ATOM     30  C   UNL     1      -6.293  -0.805  -0.641  1.00  0.00    +0.104 C 
ATOM     31  C   UNL     1      -6.075  -0.724   1.440  1.00  0.00    +0.104 C 
ATOM     32  C   UNL     1      -6.878   0.124   0.438  1.00  0.00    +0.079 C 
BRANCH  32  33
ATOM     33  N   UNL     1      -8.318  -0.110   0.594  1.00  0.00    -0.325 NA
ATOM     34  H   UNL     1      -8.577  -1.097   0.624  1.00  0.00    +0.119 HD
ATOM     35  H   UNL     1      -8.709   0.305   1.439  1.00  0.00    +0.119 HD
ENDBRANCH  32  33
ENDBRANCH  28  29
ENDBRANCH   3  23
TORSDOF 6
