MODEL 1
REMARK VINA RESULT:   -10.742      0.000      0.000
REMARK INTER + INTRA:         -14.009
REMARK INTER:                 -13.254
REMARK INTRA:                  -0.755
REMARK UNBOUND:                -0.755
REMARK SMILES Nc1nc(N2CCC(C3(N)CCNCC3)CC2)cnc1-c1cccc(F)c1Cl
REMARK SMILES IDX 5 1 6 2 7 3 8 4 16 5 17 6 4 7 2 8 3 9 20 10 19 11 18 12 1 13
REMARK SMILES IDX 21 16 22 17 27 18 23 19 25 20 24 21 28 22 26 23 9 24 11 25
REMARK SMILES IDX 15 26 12 27 14 28 13 29 10 31
REMARK H PARENT 1 14 1 15 13 30 10 32 10 33
ROOT
ATOM      1  N   UNL     1      24.570  41.309   2.956  1.00  0.00    -0.355 N 
ATOM      2  C   UNL     1      25.871  41.447   3.624  1.00  0.00    +0.118 C 
ATOM      3  C   UNL     1      27.022  41.119   2.672  1.00  0.00    +0.027 C 
ATOM      4  C   UNL     1      26.923  39.665   2.146  1.00  0.00    +0.012 C 
ATOM      5  C   UNL     1      25.444  39.303   1.826  1.00  0.00    +0.027 C 
ATOM      6  C   UNL     1      24.555  40.538   1.705  1.00  0.00    +0.118 C 
ENDROOT
BRANCH   1   7
ATOM      7  C   UNL     1      23.480  41.116   3.819  1.00  0.00    +0.149 A 
ATOM      8  C   UNL     1      22.362  39.863   5.420  1.00  0.00    +0.152 A 
ATOM      9  N   UNL     1      23.433  40.021   4.612  1.00  0.00    -0.210 NA
ATOM     10  C   UNL     1      21.307  40.794   5.442  1.00  0.00    +0.114 A 
ATOM     11  N   UNL     1      21.338  41.916   4.682  1.00  0.00    -0.248 NA
ATOM     12  C   UNL     1      22.421  42.031   3.873  1.00  0.00    +0.158 A 
BRANCH   8  13
ATOM     13  N   UNL     1      22.388  38.716   6.219  1.00  0.00    -0.382 N 
ATOM     14  H   UNL     1      21.810  38.912   7.034  1.00  0.00    +0.158 HD
ATOM     15  H   UNL     1      22.075  37.895   5.716  1.00  0.00    +0.158 HD
ENDBRANCH   8  13
BRANCH  10  16
ATOM     16  C   UNL     1      20.127  40.663   6.304  1.00  0.00    +0.026 A 
ATOM     17  C   UNL     1      20.250  40.963   7.678  1.00  0.00    +0.012 A 
ATOM     18  C   UNL     1      18.868  40.262   5.821  1.00  0.00    +0.086 A 
ATOM     19  C   UNL     1      19.164  40.846   8.548  1.00  0.00    +0.004 A 
ATOM     20  C   UNL     1      17.789  40.149   6.703  1.00  0.00    +0.142 A 
ATOM     21  C   UNL     1      17.931  40.432   8.059  1.00  0.00    +0.041 A 
ATOM     22 Cl   UNL     1      18.591  39.933   4.144  1.00  0.00    -0.080 Cl
ATOM     23  F   UNL     1      16.581  39.764   6.260  1.00  0.00    -0.205 F 
ENDBRANCH  10  16
ENDBRANCH   1   7
BRANCH   4  24
ATOM     24  C   UNL     1      27.919  39.351   0.969  1.00  0.00    +0.021 C 
ATOM     25  C   UNL     1      28.298  40.644   0.190  1.00  0.00    +0.038 C 
ATOM     26  C   UNL     1      27.293  38.324  -0.016  1.00  0.00    +0.038 C 
ATOM     27  C   UNL     1      27.411  40.847  -1.038  1.00  0.00    +0.083 C 
ATOM     28  C   UNL     1      27.850  38.465  -1.430  1.00  0.00    +0.083 C 
ATOM     29  N   UNL     1      27.571  39.773  -2.020  1.00  0.00    -0.317 NA
ATOM     30  H   UNL     1      26.742  39.730  -2.611  1.00  0.00    +0.122 HD
BRANCH  24  31
ATOM     31  N   UNL     1      29.160  38.795   1.544  1.00  0.00    -0.325 NA
ATOM     32  H   UNL     1      28.946  38.063   2.221  1.00  0.00    +0.119 HD
ATOM     33  H   UNL     1      29.710  38.344   0.813  1.00  0.00    +0.119 HD
ENDBRANCH  24  31
ENDBRANCH   4  24
TORSDOF 5
ENDMDL
