MODEL 1
REMARK VINA RESULT:    -8.806      0.000      0.000
REMARK INTER + INTRA:         -12.363
REMARK INTER:                 -11.380
REMARK INTRA:                  -0.983
REMARK UNBOUND:                -0.983
REMARK SMILES Nc1nc(N2CCC(C3(N)CCNCC3)CC2)cnc1-c1ccccc1-c1cccc(Cl)c1Cl
REMARK SMILES IDX 2 1 3 2 4 3 18 4 19 5 20 6 1 7 21 10 22 11 26 12 23 13 25 14
REMARK SMILES IDX 24 15 27 16 28 17 33 18 29 19 31 20 30 21 34 22 32 23 5 24
REMARK SMILES IDX 6 25 17 26 7 27 16 28 8 29 9 30 11 31 15 32 12 33 14 34
REMARK SMILES IDX 13 35 10 37
REMARK H PARENT 1 8 1 9 13 36 10 38 10 39
ROOT
ATOM      1  C   UNL     1      28.366  42.319   0.491  1.00  0.00    +0.152 A 
ATOM      2  N   UNL     1      27.368  42.178   1.390  1.00  0.00    -0.210 NA
ATOM      3  C   UNL     1      26.263  41.488   1.013  1.00  0.00    +0.149 A 
ATOM      4  C   UNL     1      26.217  40.944  -0.277  1.00  0.00    +0.158 A 
ATOM      5  N   UNL     1      27.197  41.072  -1.205  1.00  0.00    -0.248 NA
ATOM      6  C   UNL     1      28.290  41.757  -0.796  1.00  0.00    +0.113 A 
ENDROOT
BRANCH   1   7
ATOM      7  N   UNL     1      29.485  43.024   0.954  1.00  0.00    -0.382 N 
ATOM      8  H   UNL     1      29.463  43.933   0.501  1.00  0.00    +0.158 HD
ATOM      9  H   UNL     1      30.343  42.516   0.770  1.00  0.00    +0.158 HD
ENDBRANCH   1   7
BRANCH   6  10
ATOM     10  C   UNL     1      29.368  41.872  -1.789  1.00  0.00    +0.012 A 
ATOM     11  C   UNL     1      29.553  43.097  -2.458  1.00  0.00    +0.011 A 
ATOM     12  C   UNL     1      30.224  40.786  -2.093  1.00  0.00    -0.007 A 
ATOM     13  C   UNL     1      30.576  43.258  -3.394  1.00  0.00    +0.001 A 
ATOM     14  C   UNL     1      31.252  40.971  -3.037  1.00  0.00    +0.009 A 
ATOM     15  C   UNL     1      31.427  42.197  -3.680  1.00  0.00    +0.001 A 
BRANCH  12  16
ATOM     16  C   UNL     1      30.068  39.463  -1.454  1.00  0.00    +0.002 A 
ATOM     17  C   UNL     1      30.706  39.233  -0.220  1.00  0.00    +0.010 A 
ATOM     18  C   UNL     1      29.299  38.423  -2.021  1.00  0.00    +0.067 A 
ATOM     19  C   UNL     1      30.580  38.012   0.443  1.00  0.00    +0.002 A 
ATOM     20  C   UNL     1      29.177  37.196  -1.349  1.00  0.00    +0.060 A 
ATOM     21  C   UNL     1      29.816  36.995  -0.122  1.00  0.00    +0.022 A 
ATOM     22 Cl   UNL     1      28.515  38.662  -3.556  1.00  0.00    -0.082 Cl
ATOM     23 Cl   UNL     1      28.253  35.874  -1.979  1.00  0.00    -0.083 Cl
ENDBRANCH  12  16
ENDBRANCH   6  10
BRANCH   3  24
ATOM     24  N   UNL     1      25.235  41.317   1.932  1.00  0.00    -0.355 N 
ATOM     25  C   UNL     1      25.593  40.756   3.231  1.00  0.00    +0.118 C 
ATOM     26  C   UNL     1      24.021  42.131   1.840  1.00  0.00    +0.118 C 
ATOM     27  C   UNL     1      24.323  40.314   3.955  1.00  0.00    +0.027 C 
ATOM     28  C   UNL     1      23.585  42.634   3.216  1.00  0.00    +0.027 C 
ATOM     29  C   UNL     1      23.382  41.502   4.256  1.00  0.00    +0.012 C 
BRANCH  29  30
ATOM     30  C   UNL     1      21.873  41.103   4.462  1.00  0.00    +0.021 C 
ATOM     31  C   UNL     1      21.683  39.580   4.691  1.00  0.00    +0.038 C 
ATOM     32  C   UNL     1      21.286  41.886   5.673  1.00  0.00    +0.038 C 
ATOM     33  C   UNL     1      21.951  39.192   6.144  1.00  0.00    +0.083 C 
ATOM     34  C   UNL     1      20.373  41.029   6.544  1.00  0.00    +0.083 C 
ATOM     35  N   UNL     1      21.089  39.882   7.102  1.00  0.00    -0.317 NA
ATOM     36  H   UNL     1      20.421  39.230   7.510  1.00  0.00    +0.122 HD
BRANCH  30  37
ATOM     37  N   UNL     1      21.111  41.469   3.250  1.00  0.00    -0.325 NA
ATOM     38  H   UNL     1      21.167  40.721   2.559  1.00  0.00    +0.119 HD
ATOM     39  H   UNL     1      20.120  41.560   3.476  1.00  0.00    +0.119 HD
ENDBRANCH  30  37
ENDBRANCH  29  30
ENDBRANCH   3  24
TORSDOF 6
ENDMDL
