MODEL 1
REMARK VINA RESULT:    -8.275      0.000      0.000
REMARK INTER + INTRA:         -12.143
REMARK INTER:                 -10.693
REMARK INTRA:                  -1.449
REMARK UNBOUND:                -1.449
REMARK SMILES Nc1nc(N2CCC(N3CC(N)C3)CC2)cnc1-c1ccccc1-c1ncccc1Cl
REMARK SMILES IDX 2 1 3 2 4 3 16 4 17 5 18 6 1 7 19 10 20 11 24 12 21 13 23 14
REMARK SMILES IDX 22 15 25 16 26 17 30 18 27 19 29 20 28 21 31 22 5 23 6 24
REMARK SMILES IDX 15 25 7 26 14 27 8 28 9 29 10 30 13 31 11 32 12 33
REMARK H PARENT 1 8 1 9 12 34 12 35
ROOT
ATOM      1  C   UNL     1      26.758  41.168  -1.256  1.00  0.00    +0.152 A 
ATOM      2  N   UNL     1      25.789  41.002  -0.328  1.00  0.00    -0.210 NA
ATOM      3  C   UNL     1      26.107  41.183   0.972  1.00  0.00    +0.149 A 
ATOM      4  C   UNL     1      27.415  41.552   1.306  1.00  0.00    +0.158 A 
ATOM      5  N   UNL     1      28.419  41.721   0.412  1.00  0.00    -0.248 NA
ATOM      6  C   UNL     1      28.075  41.515  -0.884  1.00  0.00    +0.113 A 
ENDROOT
BRANCH   1   7
ATOM      7  N   UNL     1      26.383  40.953  -2.598  1.00  0.00    -0.382 N 
ATOM      8  H   UNL     1      27.138  41.254  -3.207  1.00  0.00    +0.158 HD
ATOM      9  H   UNL     1      26.298  39.940  -2.735  1.00  0.00    +0.158 HD
ENDBRANCH   1   7
BRANCH   6  10
ATOM     10  C   UNL     1      29.168  41.724  -1.848  1.00  0.00    +0.013 A 
ATOM     11  C   UNL     1      29.524  43.043  -2.193  1.00  0.00    +0.011 A 
ATOM     12  C   UNL     1      29.883  40.650  -2.432  1.00  0.00    +0.011 A 
ATOM     13  C   UNL     1      30.541  43.301  -3.113  1.00  0.00    +0.001 A 
ATOM     14  C   UNL     1      30.901  40.932  -3.365  1.00  0.00    +0.011 A 
ATOM     15  C   UNL     1      31.226  42.246  -3.703  1.00  0.00    +0.001 A 
BRANCH  12  16
ATOM     16  C   UNL     1      29.591  39.249  -2.096  1.00  0.00    +0.089 A 
ATOM     17  N   UNL     1      28.626  38.685  -2.879  1.00  0.00    -0.255 NA
ATOM     18  C   UNL     1      30.226  38.551  -1.065  1.00  0.00    +0.067 A 
ATOM     19  C   UNL     1      28.291  37.400  -2.621  1.00  0.00    +0.112 A 
ATOM     20  C   UNL     1      29.853  37.228  -0.829  1.00  0.00    +0.024 A 
ATOM     21  C   UNL     1      28.869  36.641  -1.619  1.00  0.00    +0.022 A 
ATOM     22 Cl   UNL     1      31.448  39.254  -0.071  1.00  0.00    -0.082 Cl
ENDBRANCH  12  16
ENDBRANCH   6  10
BRANCH   3  23
ATOM     23  N   UNL     1      25.118  41.026   1.967  1.00  0.00    -0.355 N 
ATOM     24  C   UNL     1      25.644  40.549   3.248  1.00  0.00    +0.120 C 
ATOM     25  C   UNL     1      24.193  42.166   2.054  1.00  0.00    +0.120 C 
ATOM     26  C   UNL     1      24.496  40.046   4.128  1.00  0.00    +0.040 C 
ATOM     27  C   UNL     1      23.473  42.211   3.405  1.00  0.00    +0.040 C 
ATOM     28  C   UNL     1      23.161  40.791   3.898  1.00  0.00    +0.060 C 
BRANCH  28  29
ATOM     29  N   UNL     1      22.368  40.834   5.150  1.00  0.00    -0.297 NA
ATOM     30  C   UNL     1      21.477  39.647   5.281  1.00  0.00    +0.104 C 
ATOM     31  C   UNL     1      21.166  41.700   5.011  1.00  0.00    +0.104 C 
ATOM     32  C   UNL     1      20.306  40.462   4.703  1.00  0.00    +0.079 C 
BRANCH  32  33
ATOM     33  N   UNL     1      19.144  40.400   5.597  1.00  0.00    -0.325 NA
ATOM     34  H   UNL     1      18.854  41.307   5.964  1.00  0.00    +0.119 HD
ATOM     35  H   UNL     1      18.315  40.000   5.159  1.00  0.00    +0.119 HD
ENDBRANCH  32  33
ENDBRANCH  28  29
ENDBRANCH   3  23
TORSDOF 6
ENDMDL
