MODEL 1
REMARK VINA RESULT:    -9.503      0.000      0.000
REMARK INTER + INTRA:         -13.722
REMARK INTER:                 -12.281
REMARK INTRA:                  -1.441
REMARK UNBOUND:                -1.441
REMARK SMILES Nc1nc(N2CCC(N3CC[C@@H](N)C3)CC2)cnc1-c1ccccc1-c1cccc(Cl)c1F
REMARK SMILES IDX 2 1 3 2 4 3 17 4 18 5 19 6 1 7 20 10 21 11 25 12 22 13 24 14
REMARK SMILES IDX 23 15 26 16 27 17 32 18 28 19 30 20 29 21 33 22 31 23 5 24
REMARK SMILES IDX 6 25 16 26 7 27 15 28 8 29 9 30 10 31 14 32 11 33 12 34
REMARK SMILES IDX 13 35
REMARK H PARENT 1 8 1 9 13 36 13 37
ROOT
ATOM      1  C   UNL     1      26.701  41.179  -1.274  1.00  0.00    +0.152 A 
ATOM      2  N   UNL     1      25.834  41.111  -0.240  1.00  0.00    -0.210 NA
ATOM      3  C   UNL     1      26.294  41.345   1.013  1.00  0.00    +0.149 A 
ATOM      4  C   UNL     1      27.657  41.613   1.173  1.00  0.00    +0.158 A 
ATOM      5  N   UNL     1      28.555  41.709   0.159  1.00  0.00    -0.248 NA
ATOM      6  C   UNL     1      28.054  41.507  -1.084  1.00  0.00    +0.113 A 
ENDROOT
BRANCH   1   7
ATOM      7  N   UNL     1      26.133  40.933  -2.525  1.00  0.00    -0.382 N 
ATOM      8  H   UNL     1      26.752  41.331  -3.225  1.00  0.00    +0.158 HD
ATOM      9  H   UNL     1      25.184  41.284  -2.593  1.00  0.00    +0.158 HD
ENDBRANCH   1   7
BRANCH   6  10
ATOM     10  C   UNL     1      29.044  41.599  -2.174  1.00  0.00    +0.012 A 
ATOM     11  C   UNL     1      29.191  42.836  -2.839  1.00  0.00    +0.011 A 
ATOM     12  C   UNL     1      29.854  40.506  -2.584  1.00  0.00    -0.006 A 
ATOM     13  C   UNL     1      30.124  43.010  -3.863  1.00  0.00    +0.001 A 
ATOM     14  C   UNL     1      30.793  40.708  -3.617  1.00  0.00    +0.009 A 
ATOM     15  C   UNL     1      30.929  41.945  -4.248  1.00  0.00    +0.001 A 
BRANCH  12  16
ATOM     16  C   UNL     1      29.735  39.158  -1.994  1.00  0.00    +0.020 A 
ATOM     17  C   UNL     1      30.601  38.743  -0.964  1.00  0.00    +0.012 A 
ATOM     18  C   UNL     1      28.757  38.252  -2.438  1.00  0.00    +0.149 A 
ATOM     19  C   UNL     1      30.500  37.465  -0.409  1.00  0.00    +0.002 A 
ATOM     20  C   UNL     1      28.657  36.974  -1.886  1.00  0.00    +0.077 A 
ATOM     21  C   UNL     1      29.528  36.578  -0.871  1.00  0.00    +0.023 A 
ATOM     22  F   UNL     1      27.906  38.621  -3.413  1.00  0.00    -0.205 F 
ATOM     23 Cl   UNL     1      27.456  35.868  -2.444  1.00  0.00    -0.081 Cl
ENDBRANCH  12  16
ENDBRANCH   6  10
BRANCH   3  24
ATOM     24  N   UNL     1      25.400  41.241   2.085  1.00  0.00    -0.355 N 
ATOM     25  C   UNL     1      24.395  42.317   2.139  1.00  0.00    +0.120 C 
ATOM     26  C   UNL     1      25.861  40.743   3.377  1.00  0.00    +0.120 C 
ATOM     27  C   UNL     1      23.595  42.288   3.444  1.00  0.00    +0.040 C 
ATOM     28  C   UNL     1      24.686  40.111   4.133  1.00  0.00    +0.040 C 
ATOM     29  C   UNL     1      23.347  40.845   3.900  1.00  0.00    +0.060 C 
BRANCH  29  30
ATOM     30  N   UNL     1      22.403  40.784   5.023  1.00  0.00    -0.299 NA
ATOM     31  C   UNL     1      22.276  39.512   5.731  1.00  0.00    +0.086 C 
ATOM     32  C   UNL     1      21.056  41.299   4.750  1.00  0.00    +0.103 C 
ATOM     33  C   UNL     1      21.026  39.722   6.569  1.00  0.00    +0.035 C 
ATOM     34  C   UNL     1      20.101  40.428   5.590  1.00  0.00    +0.066 C 
BRANCH  34  35
ATOM     35  N   UNL     1      19.015  41.138   6.255  1.00  0.00    -0.326 NA
ATOM     36  H   UNL     1      19.327  41.462   7.171  1.00  0.00    +0.119 HD
ATOM     37  H   UNL     1      18.249  40.488   6.437  1.00  0.00    +0.119 HD
ENDBRANCH  34  35
ENDBRANCH  29  30
ENDBRANCH   3  24
TORSDOF 6
ENDMDL
