MODEL 1
REMARK VINA RESULT:    -8.508      0.000      0.000
REMARK INTER + INTRA:         -12.367
REMARK INTER:                 -10.995
REMARK INTRA:                  -1.373
REMARK UNBOUND:                -1.373
REMARK SMILES Nc1nc(N2CCC(N3CC(N)C3)CC2)cnc1-c1ccccc1-c1cccc(Cl)c1F
REMARK SMILES IDX 2 1 3 2 4 3 16 4 17 5 18 6 1 7 19 10 20 11 24 12 21 13 23 14
REMARK SMILES IDX 22 15 25 16 26 17 31 18 27 19 29 20 28 21 32 22 30 23 5 24
REMARK SMILES IDX 6 25 15 26 7 27 14 28 8 29 9 30 10 31 13 32 11 33 12 34
REMARK H PARENT 1 8 1 9 12 35 12 36
ROOT
ATOM      1  C   UNL     1      26.661  40.545   2.382  1.00  0.00    +0.152 A 
ATOM      2  N   UNL     1      25.511  40.332   3.060  1.00  0.00    -0.210 NA
ATOM      3  C   UNL     1      24.432  41.084   2.742  1.00  0.00    +0.149 A 
ATOM      4  C   UNL     1      24.545  42.018   1.705  1.00  0.00    +0.158 A 
ATOM      5  N   UNL     1      25.682  42.264   1.007  1.00  0.00    -0.248 NA
ATOM      6  C   UNL     1      26.758  41.522   1.375  1.00  0.00    +0.113 A 
ENDROOT
BRANCH   1   7
ATOM      7  N   UNL     1      27.736  39.753   2.790  1.00  0.00    -0.382 N 
ATOM      8  H   UNL     1      28.210  39.415   1.958  1.00  0.00    +0.158 HD
ATOM      9  H   UNL     1      28.355  40.239   3.430  1.00  0.00    +0.158 HD
ENDBRANCH   1   7
BRANCH   6  10
ATOM     10  C   UNL     1      27.988  41.797   0.612  1.00  0.00    +0.012 A 
ATOM     11  C   UNL     1      28.853  42.809   1.080  1.00  0.00    +0.011 A 
ATOM     12  C   UNL     1      28.338  41.092  -0.569  1.00  0.00    -0.006 A 
ATOM     13  C   UNL     1      30.019  43.146   0.394  1.00  0.00    +0.001 A 
ATOM     14  C   UNL     1      29.520  41.455  -1.248  1.00  0.00    +0.009 A 
ATOM     15  C   UNL     1      30.349  42.472  -0.775  1.00  0.00    +0.001 A 
BRANCH  12  16
ATOM     16  C   UNL     1      27.530  39.976  -1.099  1.00  0.00    +0.020 A 
ATOM     17  C   UNL     1      27.650  38.682  -0.560  1.00  0.00    +0.012 A 
ATOM     18  C   UNL     1      26.624  40.168  -2.155  1.00  0.00    +0.149 A 
ATOM     19  C   UNL     1      26.881  37.623  -1.048  1.00  0.00    +0.002 A 
ATOM     20  C   UNL     1      25.854  39.110  -2.643  1.00  0.00    +0.077 A 
ATOM     21  C   UNL     1      25.980  37.836  -2.090  1.00  0.00    +0.023 A 
ATOM     22  F   UNL     1      26.495  41.388  -2.704  1.00  0.00    -0.205 F 
ATOM     23 Cl   UNL     1      24.743  39.358  -3.937  1.00  0.00    -0.081 Cl
ENDBRANCH  12  16
ENDBRANCH   6  10
BRANCH   3  24
ATOM     24  N   UNL     1      23.233  40.874   3.423  1.00  0.00    -0.355 N 
ATOM     25  C   UNL     1      23.330  40.082   4.652  1.00  0.00    +0.120 C 
ATOM     26  C   UNL     1      22.189  41.902   3.351  1.00  0.00    +0.120 C 
ATOM     27  C   UNL     1      21.926  39.748   5.148  1.00  0.00    +0.040 C 
ATOM     28  C   UNL     1      21.661  42.259   4.736  1.00  0.00    +0.040 C 
ATOM     29  C   UNL     1      21.159  41.033   5.526  1.00  0.00    +0.060 C 
BRANCH  29  30
ATOM     30  N   UNL     1      19.688  41.003   5.537  1.00  0.00    -0.297 NA
ATOM     31  C   UNL     1      19.102  40.320   6.706  1.00  0.00    +0.104 C 
ATOM     32  C   UNL     1      19.061  40.029   4.623  1.00  0.00    +0.104 C 
ATOM     33  C   UNL     1      18.096  39.616   5.762  1.00  0.00    +0.079 C 
BRANCH  33  34
ATOM     34  N   UNL     1      16.849  40.392   5.678  1.00  0.00    -0.325 NA
ATOM     35  H   UNL     1      16.147  39.983   5.065  1.00  0.00    +0.119 HD
ATOM     36  H   UNL     1      16.397  40.550   6.576  1.00  0.00    +0.119 HD
ENDBRANCH  33  34
ENDBRANCH  29  30
ENDBRANCH   3  24
TORSDOF 6
ENDMDL
