MODEL 1
REMARK VINA RESULT:    -9.848      0.000      0.000
REMARK INTER + INTRA:         -14.753
REMARK INTER:                 -13.302
REMARK INTRA:                  -1.451
REMARK UNBOUND:                -1.451
REMARK SMILES Nc1nc(N2CCC(N3CC[C@H](N)C3)CC2)cnc1-c1ccccc1-c1cccc(C(F)(F)F)c1
REMARK SMILES IDX 2 1 3 2 4 3 17 4 18 5 19 6 1 7 20 10 21 11 25 12 22 13 24 14
REMARK SMILES IDX 23 15 26 16 27 17 35 18 28 19 30 20 29 21 31 22 32 23 33 24
REMARK SMILES IDX 34 25 5 26 6 27 16 28 7 29 15 30 8 31 9 32 10 33 14 34 11 35
REMARK SMILES IDX 12 36 13 37
REMARK H PARENT 1 8 1 9 13 38 13 39
ROOT
ATOM      1  C   UNL     1      26.870  41.259  -1.451  1.00  0.00    +0.152 A 
ATOM      2  N   UNL     1      25.979  41.180  -0.439  1.00  0.00    -0.210 NA
ATOM      3  C   UNL     1      26.410  41.436   0.820  1.00  0.00    +0.149 A 
ATOM      4  C   UNL     1      27.744  41.825   1.003  1.00  0.00    +0.158 A 
ATOM      5  N   UNL     1      28.669  41.908   0.012  1.00  0.00    -0.248 NA
ATOM      6  C   UNL     1      28.217  41.591  -1.226  1.00  0.00    +0.113 A 
ENDROOT
BRANCH   1   7
ATOM      7  N   UNL     1      26.354  40.963  -2.717  1.00  0.00    -0.382 N 
ATOM      8  H   UNL     1      25.534  41.545  -2.849  1.00  0.00    +0.158 HD
ATOM      9  H   UNL     1      27.053  41.089  -3.440  1.00  0.00    +0.158 HD
ENDBRANCH   1   7
BRANCH   6  10
ATOM     10  C   UNL     1      29.226  41.646  -2.295  1.00  0.00    +0.012 A 
ATOM     11  C   UNL     1      29.521  42.890  -2.889  1.00  0.00    +0.011 A 
ATOM     12  C   UNL     1      29.903  40.487  -2.754  1.00  0.00    -0.009 A 
ATOM     13  C   UNL     1      30.438  42.992  -3.935  1.00  0.00    +0.001 A 
ATOM     14  C   UNL     1      30.819  40.614  -3.817  1.00  0.00    +0.009 A 
ATOM     15  C   UNL     1      31.081  41.852  -4.404  1.00  0.00    +0.001 A 
BRANCH  12  16
ATOM     16  C   UNL     1      29.699  39.163  -2.140  1.00  0.00    -0.017 A 
ATOM     17  C   UNL     1      30.582  38.674  -1.165  1.00  0.00    +0.009 A 
ATOM     18  C   UNL     1      28.618  38.353  -2.527  1.00  0.00    +0.021 A 
ATOM     19  C   UNL     1      30.399  37.409  -0.604  1.00  0.00    +0.001 A 
ATOM     20  C   UNL     1      28.418  37.079  -1.966  1.00  0.00    +0.056 A 
ATOM     21  C   UNL     1      29.325  36.615  -1.005  1.00  0.00    +0.013 A 
BRANCH  20  22
ATOM     22  C   UNL     1      27.265  36.225  -2.429  1.00  0.00    +0.416 C 
ATOM     23  F   UNL     1      27.552  34.891  -2.441  1.00  0.00    -0.166 F 
ATOM     24  F   UNL     1      26.860  36.529  -3.695  1.00  0.00    -0.166 F 
ATOM     25  F   UNL     1      26.160  36.353  -1.642  1.00  0.00    -0.166 F 
ENDBRANCH  20  22
ENDBRANCH  12  16
ENDBRANCH   6  10
BRANCH   3  26
ATOM     26  N   UNL     1      25.491  41.374   1.876  1.00  0.00    -0.355 N 
ATOM     27  C   UNL     1      25.619  40.165   2.708  1.00  0.00    +0.120 C 
ATOM     28  C   UNL     1      25.205  42.596   2.623  1.00  0.00    +0.120 C 
ATOM     29  C   UNL     1      24.701  40.220   3.935  1.00  0.00    +0.040 C 
ATOM     30  C   UNL     1      23.833  42.477   3.296  1.00  0.00    +0.040 C 
ATOM     31  C   UNL     1      23.430  41.022   3.629  1.00  0.00    +0.060 C 
BRANCH  31  32
ATOM     32  N   UNL     1      22.451  40.982   4.734  1.00  0.00    -0.299 NA
ATOM     33  C   UNL     1      22.500  39.746   5.528  1.00  0.00    +0.086 C 
ATOM     34  C   UNL     1      21.054  41.101   4.286  1.00  0.00    +0.103 C 
ATOM     35  C   UNL     1      21.090  39.529   6.077  1.00  0.00    +0.035 C 
ATOM     36  C   UNL     1      20.280  40.703   5.544  1.00  0.00    +0.066 C 
BRANCH  36  37
ATOM     37  N   UNL     1      18.876  40.375   5.316  1.00  0.00    -0.326 NA
ATOM     38  H   UNL     1      18.283  41.170   5.552  1.00  0.00    +0.119 HD
ATOM     39  H   UNL     1      18.727  40.197   4.323  1.00  0.00    +0.119 HD
ENDBRANCH  36  37
ENDBRANCH  31  32
ENDBRANCH   3  26
TORSDOF 7
ENDMDL
