REMARK SMILES CN1CCC(N)(C2CCN(c3cnc(-c4ccccc4-c4cccc(C(F)(F)F)c4)c(N)n3)CC2)CC1
REMARK SMILES IDX 11 1 12 2 13 3 14 4 31 5 33 6 10 7 7 8 8 9 35 10 9 11 34 12
REMARK SMILES IDX 5 13 2 14 3 15 37 16 4 17 36 18 1 19 6 20 32 23 15 26 16 27
REMARK SMILES IDX 20 28 17 29 19 30 18 31 21 32 22 33 30 34 23 35 25 36 24 37
REMARK SMILES IDX 26 38 27 39 28 40 29 41
REMARK H PARENT 6 21 6 22 32 24 32 25
ROOT
ATOM      1  C   UNL     1       0.590  -0.705   1.143  1.00  0.00    +0.149 A 
ATOM      2  C   UNL     1       1.475  -1.792   1.152  1.00  0.00    +0.158 A 
ATOM      3  N   UNL     1       2.766  -1.730   1.565  1.00  0.00    -0.248 NA
ATOM      4  C   UNL     1       3.174  -0.506   1.986  1.00  0.00    +0.113 A 
ATOM      5  C   UNL     1       2.293   0.590   2.033  1.00  0.00    +0.152 A 
ATOM      6  N   UNL     1       1.013   0.492   1.612  1.00  0.00    -0.210 NA
ENDROOT
BRANCH   1   7
ATOM      7  N   UNL     1      -0.734  -0.842   0.675  1.00  0.00    -0.355 N 
ATOM      8  C   UNL     1      -3.311  -1.067  -0.384  1.00  0.00    +0.012 C 
ATOM      9  C   UNL     1      -3.030   0.049   0.643  1.00  0.00    +0.027 C 
ATOM     10  C   UNL     1      -2.130  -1.132  -1.372  1.00  0.00    +0.027 C 
ATOM     11  C   UNL     1      -1.543   0.364   0.849  1.00  0.00    +0.118 C 
ATOM     12  C   UNL     1      -0.817  -1.472  -0.651  1.00  0.00    +0.118 C 
BRANCH   8  13
ATOM     13  C   UNL     1      -4.736  -1.071  -1.065  1.00  0.00    +0.021 C 
ATOM     14  N   UNL     1      -6.414   1.388  -0.864  1.00  0.00    -0.306 NA
ATOM     15  C   UNL     1      -5.245   1.363  -1.746  1.00  0.00    +0.086 C 
ATOM     16  C   UNL     1      -6.254   0.524   0.309  1.00  0.00    +0.086 C 
ATOM     17  C   UNL     1      -4.931  -0.057  -2.213  1.00  0.00    +0.038 C 
ATOM     18  C   UNL     1      -5.904  -0.922  -0.062  1.00  0.00    +0.038 C 
ATOM     19  C   UNL     1      -6.729   2.757  -0.459  1.00  0.00    +0.105 C 
BRANCH  13  20
ATOM     20  N   UNL     1      -4.899  -2.417  -1.673  1.00  0.00    -0.325 NA
ATOM     21  H   UNL     1      -4.243  -2.560  -2.439  1.00  0.00    +0.119 HD
ATOM     22  H   UNL     1      -4.732  -3.147  -0.982  1.00  0.00    +0.119 HD
ENDBRANCH  13  20
ENDBRANCH   8  13
ENDBRANCH   1   7
BRANCH   5  23
ATOM     23  N   UNL     1       2.675   1.862   2.475  1.00  0.00    -0.382 N 
ATOM     24  H   UNL     1       3.137   1.824   3.376  1.00  0.00    +0.158 HD
ATOM     25  H   UNL     1       1.838   2.438   2.482  1.00  0.00    +0.158 HD
ENDBRANCH   5  23
BRANCH   4  26
ATOM     26  C   UNL     1       4.586  -0.415   2.381  1.00  0.00    +0.012 A 
ATOM     27  C   UNL     1       4.974  -0.855   3.661  1.00  0.00    +0.011 A 
ATOM     28  C   UNL     1       5.570   0.115   1.509  1.00  0.00    -0.009 A 
ATOM     29  C   UNL     1       6.298  -0.750   4.087  1.00  0.00    +0.001 A 
ATOM     30  C   UNL     1       6.899   0.217   1.961  1.00  0.00    +0.009 A 
ATOM     31  C   UNL     1       7.260  -0.209   3.240  1.00  0.00    +0.001 A 
BRANCH  28  32
ATOM     32  C   UNL     1       5.249   0.533   0.135  1.00  0.00    -0.017 A 
ATOM     33  C   UNL     1       5.137   1.889  -0.202  1.00  0.00    +0.009 A 
ATOM     34  C   UNL     1       5.034  -0.428  -0.867  1.00  0.00    +0.021 A 
ATOM     35  C   UNL     1       4.813   2.277  -1.503  1.00  0.00    +0.001 A 
ATOM     36  C   UNL     1       4.715  -0.052  -2.182  1.00  0.00    +0.056 A 
ATOM     37  C   UNL     1       4.602   1.312  -2.489  1.00  0.00    +0.013 A 
BRANCH  36  38
ATOM     38  C   UNL     1       4.452  -1.103  -3.230  1.00  0.00    +0.416 C 
ATOM     39  F   UNL     1       5.180  -2.241  -3.049  1.00  0.00    -0.166 F 
ATOM     40  F   UNL     1       3.146  -1.494  -3.258  1.00  0.00    -0.166 F 
ATOM     41  F   UNL     1       4.739  -0.681  -4.495  1.00  0.00    -0.166 F 
ENDBRANCH  36  38
ENDBRANCH  28  32
ENDBRANCH   4  26
TORSDOF 7
