REMARK SMILES Nc1nc(N2CCC(C3(N)CCNCC3)CC2)cnc1-c1ccccc1-c1cccc(Cl)c1Cl
REMARK SMILES IDX 2 1 3 2 4 3 18 4 19 5 20 6 1 7 21 10 22 11 26 12 23 13 25 14
REMARK SMILES IDX 24 15 27 16 28 17 33 18 29 19 31 20 30 21 34 22 32 23 5 24
REMARK SMILES IDX 6 25 17 26 7 27 16 28 8 29 9 30 11 31 15 32 12 33 14 34
REMARK SMILES IDX 13 35 10 37
REMARK H PARENT 1 8 1 9 13 36 10 38 10 39
ROOT
ATOM      1  C   UNL     1       2.663  -1.211  -0.909  1.00  0.00    +0.152 A 
ATOM      2  N   UNL     1       1.363  -0.860  -1.009  1.00  0.00    -0.210 NA
ATOM      3  C   UNL     1       0.658  -0.691   0.137  1.00  0.00    +0.149 A 
ATOM      4  C   UNL     1       1.312  -0.872   1.362  1.00  0.00    +0.158 A 
ATOM      5  N   UNL     1       2.613  -1.230   1.498  1.00  0.00    -0.248 NA
ATOM      6  C   UNL     1       3.292  -1.381   0.337  1.00  0.00    +0.113 A 
ENDROOT
BRANCH   1   7
ATOM      7  N   UNL     1       3.335  -1.348  -2.131  1.00  0.00    -0.382 N 
ATOM      8  H   UNL     1       2.635  -1.249  -2.861  1.00  0.00    +0.158 HD
ATOM      9  H   UNL     1       3.831  -2.231  -2.182  1.00  0.00    +0.158 HD
ENDBRANCH   1   7
BRANCH   6  10
ATOM     10  C   UNL     1       4.710  -1.740   0.480  1.00  0.00    +0.012 A 
ATOM     11  C   UNL     1       5.068  -3.100   0.553  1.00  0.00    +0.011 A 
ATOM     12  C   UNL     1       5.727  -0.757   0.549  1.00  0.00    -0.007 A 
ATOM     13  C   UNL     1       6.403  -3.488   0.669  1.00  0.00    +0.001 A 
ATOM     14  C   UNL     1       7.069  -1.170   0.661  1.00  0.00    +0.009 A 
ATOM     15  C   UNL     1       7.403  -2.523   0.719  1.00  0.00    +0.001 A 
BRANCH  12  16
ATOM     16  C   UNL     1       5.423   0.688   0.510  1.00  0.00    +0.002 A 
ATOM     17  C   UNL     1       5.301   1.317  -0.744  1.00  0.00    +0.010 A 
ATOM     18  C   UNL     1       5.240   1.464   1.676  1.00  0.00    +0.067 A 
ATOM     19  C   UNL     1       4.995   2.674  -0.845  1.00  0.00    +0.002 A 
ATOM     20  C   UNL     1       4.933   2.830   1.566  1.00  0.00    +0.060 A 
ATOM     21  C   UNL     1       4.811   3.429   0.309  1.00  0.00    +0.022 A 
ATOM     22 Cl   UNL     1       5.406   0.728   3.243  1.00  0.00    -0.082 Cl
ATOM     23 Cl   UNL     1       4.694   3.847   2.947  1.00  0.00    -0.083 Cl
ENDBRANCH  12  16
ENDBRANCH   6  10
BRANCH   3  24
ATOM     24  N   UNL     1      -0.676  -0.311   0.053  1.00  0.00    -0.355 N 
ATOM     25  C   UNL     1      -1.189   0.018  -1.273  1.00  0.00    +0.118 C 
ATOM     26  C   UNL     1      -1.630  -0.738   1.079  1.00  0.00    +0.118 C 
ATOM     27  C   UNL     1      -2.527   0.742  -1.129  1.00  0.00    +0.027 C 
ATOM     28  C   UNL     1      -2.944  -1.207   0.453  1.00  0.00    +0.027 C 
ATOM     29  C   UNL     1      -3.603  -0.152  -0.472  1.00  0.00    +0.012 C 
BRANCH  29  30
ATOM     30  C   UNL     1      -4.777   0.640   0.216  1.00  0.00    +0.021 C 
ATOM     31  C   UNL     1      -5.374   1.740  -0.701  1.00  0.00    +0.038 C 
ATOM     32  C   UNL     1      -5.902  -0.353   0.634  1.00  0.00    +0.038 C 
ATOM     33  C   UNL     1      -6.385   1.162  -1.689  1.00  0.00    +0.083 C 
ATOM     34  C   UNL     1      -7.301   0.197   0.374  1.00  0.00    +0.083 C 
ATOM     35  N   UNL     1      -7.508   0.482  -1.045  1.00  0.00    -0.317 NA
ATOM     36  H   UNL     1      -8.364   1.024  -1.162  1.00  0.00    +0.122 HD
BRANCH  30  37
ATOM     37  N   UNL     1      -4.260   1.304   1.430  1.00  0.00    -0.325 NA
ATOM     38  H   UNL     1      -3.594   2.034   1.176  1.00  0.00    +0.119 HD
ATOM     39  H   UNL     1      -5.019   1.782   1.916  1.00  0.00    +0.119 HD
ENDBRANCH  30  37
ENDBRANCH  29  30
ENDBRANCH   3  24
TORSDOF 6
