REMARK SMILES Nc1nc(N2CCC(N3CC[C@@H](N)C3)CC2)cnc1-c1ccccc1-c1cccc(Cl)c1Cl
REMARK SMILES IDX 2 1 3 2 4 3 17 4 18 5 19 6 1 7 20 10 21 11 25 12 22 13 24 14
REMARK SMILES IDX 23 15 26 16 27 17 32 18 28 19 30 20 29 21 33 22 31 23 5 24
REMARK SMILES IDX 6 25 16 26 7 27 15 28 8 29 9 30 10 31 14 32 11 33 12 34
REMARK SMILES IDX 13 35
REMARK H PARENT 1 8 1 9 13 36 13 37
ROOT
ATOM      1  C   UNL     1       2.360   1.186   0.153  1.00  0.00    +0.152 A 
ATOM      2  N   UNL     1       1.107   0.812   0.493  1.00  0.00    -0.210 NA
ATOM      3  C   UNL     1       0.350   0.158  -0.421  1.00  0.00    +0.149 A 
ATOM      4  C   UNL     1       0.897  -0.075  -1.686  1.00  0.00    +0.158 A 
ATOM      5  N   UNL     1       2.159   0.264  -2.057  1.00  0.00    -0.248 NA
ATOM      6  C   UNL     1       2.903   0.886  -1.107  1.00  0.00    +0.113 A 
ENDROOT
BRANCH   1   7
ATOM      7  N   UNL     1       3.061   1.848   1.161  1.00  0.00    -0.382 N 
ATOM      8  H   UNL     1       2.415   2.015   1.928  1.00  0.00    +0.158 HD
ATOM      9  H   UNL     1       3.514   2.693   0.836  1.00  0.00    +0.158 HD
ENDBRANCH   1   7
BRANCH   6  10
ATOM     10  C   UNL     1       4.269   1.250  -1.538  1.00  0.00    +0.012 A 
ATOM     11  C   UNL     1       4.406   2.142  -2.625  1.00  0.00    +0.011 A 
ATOM     12  C   UNL     1       5.447   0.725  -0.940  1.00  0.00    -0.007 A 
ATOM     13  C   UNL     1       5.660   2.522  -3.109  1.00  0.00    +0.001 A 
ATOM     14  C   UNL     1       6.703   1.111  -1.460  1.00  0.00    +0.009 A 
ATOM     15  C   UNL     1       6.809   2.006  -2.525  1.00  0.00    +0.001 A 
BRANCH  12  16
ATOM     16  C   UNL     1       5.417  -0.247   0.179  1.00  0.00    +0.002 A 
ATOM     17  C   UNL     1       4.938  -1.552  -0.070  1.00  0.00    +0.010 A 
ATOM     18  C   UNL     1       5.858   0.070   1.488  1.00  0.00    +0.067 A 
ATOM     19  C   UNL     1       4.887  -2.513   0.942  1.00  0.00    +0.002 A 
ATOM     20  C   UNL     1       5.796  -0.902   2.503  1.00  0.00    +0.060 A 
ATOM     21  C   UNL     1       5.314  -2.187   2.226  1.00  0.00    +0.022 A 
ATOM     22 Cl   UNL     1       6.473   1.666   1.847  1.00  0.00    -0.082 Cl
ATOM     23 Cl   UNL     1       6.302  -0.585   4.130  1.00  0.00    -0.083 Cl
ENDBRANCH  12  16
ENDBRANCH   6  10
BRANCH   3  24
ATOM     24  N   UNL     1      -0.964  -0.188  -0.083  1.00  0.00    -0.355 N 
ATOM     25  C   UNL     1      -1.322   0.110   1.312  1.00  0.00    +0.120 C 
ATOM     26  C   UNL     1      -1.543  -1.415  -0.623  1.00  0.00    +0.120 C 
ATOM     27  C   UNL     1      -2.736  -0.382   1.655  1.00  0.00    +0.040 C 
ATOM     28  C   UNL     1      -3.071  -1.307  -0.641  1.00  0.00    +0.040 C 
ATOM     29  C   UNL     1      -3.643  -0.338   0.417  1.00  0.00    +0.060 C 
BRANCH  29  30
ATOM     30  N   UNL     1      -5.055  -0.659   0.733  1.00  0.00    -0.299 NA
ATOM     31  C   UNL     1      -5.665   0.287   1.687  1.00  0.00    +0.086 C 
ATOM     32  C   UNL     1      -5.940  -0.635  -0.447  1.00  0.00    +0.103 C 
ATOM     33  C   UNL     1      -7.154   0.357   1.342  1.00  0.00    +0.035 C 
ATOM     34  C   UNL     1      -7.330  -0.625   0.192  1.00  0.00    +0.066 C 
BRANCH  34  35
ATOM     35  N   UNL     1      -8.412  -0.246  -0.717  1.00  0.00    -0.326 NA
ATOM     36  H   UNL     1      -8.529  -0.972  -1.426  1.00  0.00    +0.119 HD
ATOM     37  H   UNL     1      -9.291  -0.211  -0.198  1.00  0.00    +0.119 HD
ENDBRANCH  34  35
ENDBRANCH  29  30
ENDBRANCH   3  24
TORSDOF 6
