MODEL 1
REMARK VINA RESULT:    -9.279      0.000      0.000
REMARK INTER + INTRA:         -13.470
REMARK INTER:                 -11.992
REMARK INTRA:                  -1.479
REMARK UNBOUND:                -1.479
REMARK SMILES Nc1nc(N2CCC(N3CC[C@@H](N)C3)CC2)cnc1-c1ccccc1-c1cccc(Cl)c1Cl
REMARK SMILES IDX 2 1 3 2 4 3 17 4 18 5 19 6 1 7 20 10 21 11 25 12 22 13 24 14
REMARK SMILES IDX 23 15 26 16 27 17 32 18 28 19 30 20 29 21 33 22 31 23 5 24
REMARK SMILES IDX 6 25 16 26 7 27 15 28 8 29 9 30 10 31 14 32 11 33 12 34
REMARK SMILES IDX 13 35
REMARK H PARENT 1 8 1 9 13 36 13 37
ROOT
ATOM      1  C   UNL     1      27.568  40.769   1.061  1.00  0.00    +0.152 A 
ATOM      2  N   UNL     1      26.518  41.095   1.847  1.00  0.00    -0.210 NA
ATOM      3  C   UNL     1      25.626  40.130   2.179  1.00  0.00    +0.149 A 
ATOM      4  C   UNL     1      25.823  38.844   1.667  1.00  0.00    +0.158 A 
ATOM      5  N   UNL     1      26.877  38.473   0.895  1.00  0.00    -0.248 NA
ATOM      6  C   UNL     1      27.771  39.454   0.610  1.00  0.00    +0.113 A 
ENDROOT
BRANCH   1   7
ATOM      7  N   UNL     1      28.431  41.827   0.779  1.00  0.00    -0.382 N 
ATOM      8  H   UNL     1      27.863  42.631   0.526  1.00  0.00    +0.158 HD
ATOM      9  H   UNL     1      29.122  41.595   0.076  1.00  0.00    +0.158 HD
ENDBRANCH   1   7
BRANCH   6  10
ATOM     10  C   UNL     1      28.904  39.026  -0.236  1.00  0.00    +0.012 A 
ATOM     11  C   UNL     1      30.096  38.621   0.406  1.00  0.00    +0.011 A 
ATOM     12  C   UNL     1      28.869  39.033  -1.657  1.00  0.00    -0.007 A 
ATOM     13  C   UNL     1      31.221  38.221  -0.319  1.00  0.00    +0.001 A 
ATOM     14  C   UNL     1      30.026  38.641  -2.368  1.00  0.00    +0.009 A 
ATOM     15  C   UNL     1      31.185  38.230  -1.707  1.00  0.00    +0.001 A 
BRANCH  12  16
ATOM     16  C   UNL     1      27.685  39.476  -2.431  1.00  0.00    +0.002 A 
ATOM     17  C   UNL     1      26.649  38.548  -2.677  1.00  0.00    +0.010 A 
ATOM     18  C   UNL     1      27.538  40.795  -2.928  1.00  0.00    +0.067 A 
ATOM     19  C   UNL     1      25.508  38.906  -3.397  1.00  0.00    +0.002 A 
ATOM     20  C   UNL     1      26.388  41.145  -3.659  1.00  0.00    +0.060 A 
ATOM     21  C   UNL     1      25.379  40.202  -3.888  1.00  0.00    +0.022 A 
ATOM     22 Cl   UNL     1      28.783  41.988  -2.640  1.00  0.00    -0.082 Cl
ATOM     23 Cl   UNL     1      26.144  42.732  -4.311  1.00  0.00    -0.083 Cl
ENDBRANCH  12  16
ENDBRANCH   6  10
BRANCH   3  24
ATOM     24  N   UNL     1      24.514  40.480   2.955  1.00  0.00    -0.355 N 
ATOM     25  C   UNL     1      23.972  41.814   2.657  1.00  0.00    +0.120 C 
ATOM     26  C   UNL     1      24.473  40.093   4.362  1.00  0.00    +0.120 C 
ATOM     27  C   UNL     1      22.821  42.185   3.605  1.00  0.00    +0.040 C 
ATOM     28  C   UNL     1      23.020  40.025   4.842  1.00  0.00    +0.040 C 
ATOM     29  C   UNL     1      22.054  40.931   4.048  1.00  0.00    +0.060 C 
BRANCH  29  30
ATOM     30  N   UNL     1      20.844  41.253   4.840  1.00  0.00    -0.299 NA
ATOM     31  C   UNL     1      19.667  40.452   4.452  1.00  0.00    +0.086 C 
ATOM     32  C   UNL     1      21.009  41.013   6.286  1.00  0.00    +0.103 C 
ATOM     33  C   UNL     1      18.819  40.281   5.714  1.00  0.00    +0.035 C 
ATOM     34  C   UNL     1      19.564  41.060   6.788  1.00  0.00    +0.066 C 
BRANCH  34  35
ATOM     35  N   UNL     1      19.370  40.507   8.129  1.00  0.00    -0.326 NA
ATOM     36  H   UNL     1      18.457  40.052   8.179  1.00  0.00    +0.119 HD
ATOM     37  H   UNL     1      20.063  39.774   8.294  1.00  0.00    +0.119 HD
ENDBRANCH  34  35
ENDBRANCH  29  30
ENDBRANCH   3  24
TORSDOF 6
ENDMDL
