MODEL 1
REMARK VINA RESULT:    -8.596      0.000      0.000
REMARK INTER + INTRA:         -12.858
REMARK INTER:                 -11.611
REMARK INTRA:                  -1.247
REMARK UNBOUND:                -1.247
REMARK SMILES Nc1nc(N2CCC(N3CC(N)C3)CC2)cnc1-c1ccccc1-c1cccc(C(F)(F)F)c1
REMARK SMILES IDX 2 1 3 2 4 3 16 4 17 5 18 6 1 7 19 10 20 11 24 12 21 13 23 14
REMARK SMILES IDX 22 15 25 16 26 17 34 18 27 19 29 20 28 21 30 22 31 23 32 24
REMARK SMILES IDX 33 25 5 26 6 27 15 28 7 29 14 30 8 31 9 32 10 33 13 34 11 35
REMARK SMILES IDX 12 36
REMARK H PARENT 1 8 1 9 12 37 12 38
ROOT
ATOM      1  C   UNL     1      27.624  41.573  -1.152  1.00  0.00    +0.152 A 
ATOM      2  N   UNL     1      27.004  41.747   0.036  1.00  0.00    -0.210 NA
ATOM      3  C   UNL     1      27.727  42.251   1.063  1.00  0.00    +0.149 A 
ATOM      4  C   UNL     1      29.079  42.558   0.853  1.00  0.00    +0.158 A 
ATOM      5  N   UNL     1      29.732  42.404  -0.325  1.00  0.00    -0.248 NA
ATOM      6  C   UNL     1      28.986  41.883  -1.331  1.00  0.00    +0.113 A 
ENDROOT
BRANCH   1   7
ATOM      7  N   UNL     1      26.815  41.056  -2.170  1.00  0.00    -0.382 N 
ATOM      8  H   UNL     1      26.713  40.061  -1.989  1.00  0.00    +0.158 HD
ATOM      9  H   UNL     1      25.925  41.540  -2.217  1.00  0.00    +0.158 HD
ENDBRANCH   1   7
BRANCH   6  10
ATOM     10  C   UNL     1      29.694  41.707  -2.608  1.00  0.00    +0.012 A 
ATOM     11  C   UNL     1      30.030  42.851  -3.360  1.00  0.00    +0.011 A 
ATOM     12  C   UNL     1      30.044  40.430  -3.111  1.00  0.00    -0.009 A 
ATOM     13  C   UNL     1      30.672  42.744  -4.594  1.00  0.00    +0.001 A 
ATOM     14  C   UNL     1      30.686  40.344  -4.362  1.00  0.00    +0.009 A 
ATOM     15  C   UNL     1      30.994  41.490  -5.098  1.00  0.00    +0.001 A 
BRANCH  12  16
ATOM     16  C   UNL     1      29.784  39.189  -2.361  1.00  0.00    -0.017 A 
ATOM     17  C   UNL     1      30.588  38.830  -1.269  1.00  0.00    +0.009 A 
ATOM     18  C   UNL     1      28.725  38.339  -2.720  1.00  0.00    +0.021 A 
ATOM     19  C   UNL     1      30.342  37.658  -0.551  1.00  0.00    +0.001 A 
ATOM     20  C   UNL     1      28.462  37.158  -2.004  1.00  0.00    +0.056 A 
ATOM     21  C   UNL     1      29.285  36.827  -0.917  1.00  0.00    +0.013 A 
BRANCH  20  22
ATOM     22  C   UNL     1      27.310  36.261  -2.378  1.00  0.00    +0.416 C 
ATOM     23  F   UNL     1      27.645  34.941  -2.360  1.00  0.00    -0.166 F 
ATOM     24  F   UNL     1      26.228  36.384  -1.558  1.00  0.00    -0.166 F 
ATOM     25  F   UNL     1      26.847  36.508  -3.637  1.00  0.00    -0.166 F 
ENDBRANCH  20  22
ENDBRANCH  12  16
ENDBRANCH   6  10
BRANCH   3  26
ATOM     26  N   UNL     1      27.126  42.448   2.321  1.00  0.00    -0.355 N 
ATOM     27  C   UNL     1      27.294  41.345   3.282  1.00  0.00    +0.120 C 
ATOM     28  C   UNL     1      25.768  43.020   2.235  1.00  0.00    +0.120 C 
ATOM     29  C   UNL     1      26.019  40.512   3.363  1.00  0.00    +0.040 C 
ATOM     30  C   UNL     1      25.028  42.842   3.557  1.00  0.00    +0.040 C 
ATOM     31  C   UNL     1      24.841  41.349   3.919  1.00  0.00    +0.060 C 
BRANCH  31  32
ATOM     32  N   UNL     1      23.551  40.848   3.387  1.00  0.00    -0.297 NA
ATOM     33  C   UNL     1      22.737  40.141   4.420  1.00  0.00    +0.104 C 
ATOM     34  C   UNL     1      22.513  41.923   3.365  1.00  0.00    +0.104 C 
ATOM     35  C   UNL     1      22.017  41.461   4.749  1.00  0.00    +0.079 C 
BRANCH  35  36
ATOM     36  N   UNL     1      20.564  41.274   4.739  1.00  0.00    -0.325 NA
ATOM     37  H   UNL     1      20.272  40.327   4.971  1.00  0.00    +0.119 HD
ATOM     38  H   UNL     1      20.128  41.492   3.844  1.00  0.00    +0.119 HD
ENDBRANCH  35  36
ENDBRANCH  31  32
ENDBRANCH   3  26
TORSDOF 7
ENDMDL
