REMARK SMILES Nc1nc(N2CCC(N3CC(N)C3)CC2)cnc1-c1ccccc1-c1cccc(Cl)c1Cl
REMARK SMILES IDX 2 1 3 2 4 3 16 4 17 5 18 6 1 7 19 10 20 11 24 12 21 13 23 14
REMARK SMILES IDX 22 15 25 16 26 17 31 18 27 19 29 20 28 21 32 22 30 23 5 24
REMARK SMILES IDX 6 25 15 26 7 27 14 28 8 29 9 30 10 31 13 32 11 33 12 34
REMARK H PARENT 1 8 1 9 12 35 12 36
ROOT
ATOM      1  C   UNL     1       2.100   1.317   0.817  1.00  0.00    +0.152 A 
ATOM      2  N   UNL     1       0.791   1.397   0.490  1.00  0.00    -0.210 NA
ATOM      3  C   UNL     1      -0.028   0.413   0.931  1.00  0.00    +0.149 A 
ATOM      4  C   UNL     1       0.499  -0.612   1.727  1.00  0.00    +0.158 A 
ATOM      5  N   UNL     1       1.806  -0.724   2.065  1.00  0.00    -0.248 NA
ATOM      6  C   UNL     1       2.612   0.248   1.576  1.00  0.00    +0.113 A 
ENDROOT
BRANCH   1   7
ATOM      7  N   UNL     1       2.900   2.349   0.312  1.00  0.00    -0.382 N 
ATOM      8  H   UNL     1       2.274   3.021  -0.124  1.00  0.00    +0.158 HD
ATOM      9  H   UNL     1       3.468   2.765   1.042  1.00  0.00    +0.158 HD
ENDBRANCH   1   7
BRANCH   6  10
ATOM     10  C   UNL     1       4.035   0.107   1.911  1.00  0.00    +0.012 A 
ATOM     11  C   UNL     1       4.495   0.575   3.157  1.00  0.00    +0.011 A 
ATOM     12  C   UNL     1       4.960  -0.494   1.021  1.00  0.00    -0.007 A 
ATOM     13  C   UNL     1       5.840   0.478   3.513  1.00  0.00    +0.001 A 
ATOM     14  C   UNL     1       6.314  -0.578   1.397  1.00  0.00    +0.009 A 
ATOM     15  C   UNL     1       6.750  -0.094   2.631  1.00  0.00    +0.001 A 
BRANCH  12  16
ATOM     16  C   UNL     1       4.546  -1.040  -0.287  1.00  0.00    +0.002 A 
ATOM     17  C   UNL     1       4.583  -0.193  -1.413  1.00  0.00    +0.010 A 
ATOM     18  C   UNL     1       4.109  -2.372  -0.459  1.00  0.00    +0.067 A 
ATOM     19  C   UNL     1       4.186  -0.644  -2.671  1.00  0.00    +0.002 A 
ATOM     20  C   UNL     1       3.708  -2.819  -1.729  1.00  0.00    +0.060 A 
ATOM     21  C   UNL     1       3.747  -1.955  -2.828  1.00  0.00    +0.022 A 
ATOM     22 Cl   UNL     1       4.080  -3.458   0.899  1.00  0.00    -0.082 Cl
ATOM     23 Cl   UNL     1       3.149  -4.432  -2.018  1.00  0.00    -0.083 Cl
ENDBRANCH  12  16
ENDBRANCH   6  10
BRANCH   3  24
ATOM     24  N   UNL     1      -1.407   0.438   0.612  1.00  0.00    -0.355 N 
ATOM     25  C   UNL     1      -1.823   1.718   0.021  1.00  0.00    +0.120 C 
ATOM     26  C   UNL     1      -1.807  -0.736  -0.180  1.00  0.00    +0.120 C 
ATOM     27  C   UNL     1      -3.343   1.747  -0.141  1.00  0.00    +0.040 C 
ATOM     28  C   UNL     1      -3.330  -0.757  -0.331  1.00  0.00    +0.040 C 
ATOM     29  C   UNL     1      -3.830   0.550  -0.977  1.00  0.00    +0.060 C 
BRANCH  29  30
ATOM     30  N   UNL     1      -5.268   0.725  -1.235  1.00  0.00    -0.297 NA
ATOM     31  C   UNL     1      -5.867  -0.325  -2.088  1.00  0.00    +0.104 C 
ATOM     32  C   UNL     1      -6.173   0.339  -0.127  1.00  0.00    +0.104 C 
ATOM     33  C   UNL     1      -7.138  -0.221  -1.205  1.00  0.00    +0.079 C 
BRANCH  33  34
ATOM     34  N   UNL     1      -7.618  -1.554  -0.825  1.00  0.00    -0.325 NA
ATOM     35  H   UNL     1      -8.107  -2.038  -1.577  1.00  0.00    +0.119 HD
ATOM     36  H   UNL     1      -6.892  -2.193  -0.502  1.00  0.00    +0.119 HD
ENDBRANCH  33  34
ENDBRANCH  29  30
ENDBRANCH   3  24
TORSDOF 6
