REMARK SMILES CN1CCC(N)(C2CCN(c3cnc(-c4ccccc4-c4cccc(Cl)c4F)c(N)n3)CC2)CC1
REMARK SMILES IDX 7 1 8 2 9 3 10 4 32 5 33 6 5 7 2 8 3 9 35 10 4 11 34 12 1 13
REMARK SMILES IDX 6 14 11 17 12 18 31 19 13 20 29 21 14 22 30 23 15 26 16 27
REMARK SMILES IDX 20 28 17 29 19 30 18 31 21 32 22 33 27 34 23 35 25 36 24 37
REMARK SMILES IDX 28 38 26 39
REMARK H PARENT 6 15 6 16 30 24 30 25
ROOT
ATOM      1  C   UNL     1       3.022  -0.903   0.126  1.00  0.00    +0.012 C 
ATOM      2  C   UNL     1       2.108  -1.944  -0.570  1.00  0.00    +0.027 C 
ATOM      3  C   UNL     1       0.653  -1.480  -0.740  1.00  0.00    +0.118 C 
ATOM      4  N   UNL     1       0.283  -0.586   0.352  1.00  0.00    -0.355 N 
ATOM      5  C   UNL     1       1.062   0.660   0.457  1.00  0.00    +0.118 C 
ATOM      6  C   UNL     1       2.462   0.503  -0.148  1.00  0.00    +0.027 C 
ENDROOT
BRANCH   1   7
ATOM      7  C   UNL     1       4.547  -1.063  -0.203  1.00  0.00    +0.021 C 
ATOM      8  N   UNL     1       7.135   0.144  -0.964  1.00  0.00    -0.306 NA
ATOM      9  C   UNL     1       6.382  -0.639  -1.952  1.00  0.00    +0.086 C 
ATOM     10  C   UNL     1       6.284   0.834   0.004  1.00  0.00    +0.086 C 
ATOM     11  C   UNL     1       4.875  -0.739  -1.675  1.00  0.00    +0.038 C 
ATOM     12  C   UNL     1       5.406  -0.176   0.748  1.00  0.00    +0.038 C 
ATOM     13  C   UNL     1       8.065   1.071  -1.610  1.00  0.00    +0.105 C 
BRANCH   7  14
ATOM     14  N   UNL     1       4.905  -2.478   0.050  1.00  0.00    -0.325 NA
ATOM     15  H   UNL     1       5.919  -2.587  -0.032  1.00  0.00    +0.119 HD
ATOM     16  H   UNL     1       4.689  -2.716   1.020  1.00  0.00    +0.119 HD
ENDBRANCH   7  14
ENDBRANCH   1   7
BRANCH   4  17
ATOM     17  C   UNL     1      -1.050  -0.457   0.744  1.00  0.00    +0.149 A 
ATOM     18  C   UNL     1      -1.963  -1.516   0.713  1.00  0.00    +0.158 A 
ATOM     19  N   UNL     1      -1.466   0.732   1.244  1.00  0.00    -0.210 NA
ATOM     20  N   UNL     1      -3.258  -1.436   1.116  1.00  0.00    -0.248 NA
ATOM     21  C   UNL     1      -2.740   0.855   1.672  1.00  0.00    +0.152 A 
ATOM     22  C   UNL     1      -3.637  -0.227   1.595  1.00  0.00    +0.113 A 
BRANCH  21  23
ATOM     23  N   UNL     1      -3.106   2.110   2.193  1.00  0.00    -0.382 N 
ATOM     24  H   UNL     1      -3.477   1.992   3.131  1.00  0.00    +0.158 HD
ATOM     25  H   UNL     1      -3.858   2.504   1.629  1.00  0.00    +0.158 HD
ENDBRANCH  21  23
BRANCH  22  26
ATOM     26  C   UNL     1      -5.029  -0.150   2.058  1.00  0.00    +0.012 A 
ATOM     27  C   UNL     1      -5.337  -0.570   3.367  1.00  0.00    +0.011 A 
ATOM     28  C   UNL     1      -6.070   0.331   1.229  1.00  0.00    -0.006 A 
ATOM     29  C   UNL     1      -6.640  -0.494   3.861  1.00  0.00    +0.001 A 
ATOM     30  C   UNL     1      -7.377   0.406   1.748  1.00  0.00    +0.009 A 
ATOM     31  C   UNL     1      -7.659  -0.001   3.053  1.00  0.00    +0.001 A 
BRANCH  28  32
ATOM     32  C   UNL     1      -5.838   0.722  -0.170  1.00  0.00    +0.020 A 
ATOM     33  C   UNL     1      -5.906  -0.239  -1.194  1.00  0.00    +0.012 A 
ATOM     34  C   UNL     1      -5.534   2.046  -0.518  1.00  0.00    +0.149 A 
ATOM     35  C   UNL     1      -5.682   0.118  -2.527  1.00  0.00    +0.002 A 
ATOM     36  C   UNL     1      -5.313   2.406  -1.848  1.00  0.00    +0.077 A 
ATOM     37  C   UNL     1      -5.387   1.442  -2.854  1.00  0.00    +0.023 A 
ATOM     38  F   UNL     1      -5.427   2.968   0.455  1.00  0.00    -0.205 F 
ATOM     39 Cl   UNL     1      -4.936   4.034  -2.264  1.00  0.00    -0.081 Cl
ENDBRANCH  28  32
ENDBRANCH  22  26
ENDBRANCH   4  17
TORSDOF 6
