MODEL 1
REMARK VINA RESULT:    -9.378      0.000      0.000
REMARK INTER + INTRA:         -13.475
REMARK INTER:                 -12.120
REMARK INTRA:                  -1.355
REMARK UNBOUND:                -1.355
REMARK SMILES Nc1nc(N2CCC(N3CC[C@H](N)C3)CC2)cnc1-c1ccccc1-c1ncccc1Cl
REMARK SMILES IDX 2 1 3 2 4 3 17 4 18 5 19 6 1 7 20 10 21 11 25 12 22 13 24 14
REMARK SMILES IDX 23 15 26 16 27 17 31 18 28 19 30 20 29 21 32 22 5 23 6 24
REMARK SMILES IDX 16 25 7 26 15 27 8 28 9 29 10 30 14 31 11 32 12 33 13 34
REMARK H PARENT 1 8 1 9 13 35 13 36
ROOT
ATOM      1  C   UNL     1      26.486  40.764   2.787  1.00  0.00    +0.152 A 
ATOM      2  N   UNL     1      25.363  40.677   3.537  1.00  0.00    -0.210 NA
ATOM      3  C   UNL     1      24.282  41.413   3.188  1.00  0.00    +0.149 A 
ATOM      4  C   UNL     1      24.369  42.212   2.042  1.00  0.00    +0.158 A 
ATOM      5  N   UNL     1      25.475  42.339   1.265  1.00  0.00    -0.248 NA
ATOM      6  C   UNL     1      26.546  41.607   1.658  1.00  0.00    +0.113 A 
ENDROOT
BRANCH   1   7
ATOM      7  N   UNL     1      27.575  39.972   3.201  1.00  0.00    -0.382 N 
ATOM      8  H   UNL     1      27.967  39.529   2.363  1.00  0.00    +0.158 HD
ATOM      9  H   UNL     1      27.232  39.215   3.782  1.00  0.00    +0.158 HD
ENDBRANCH   1   7
BRANCH   6  10
ATOM     10  C   UNL     1      27.722  41.715   0.780  1.00  0.00    +0.013 A 
ATOM     11  C   UNL     1      28.630  42.771   0.997  1.00  0.00    +0.011 A 
ATOM     12  C   UNL     1      27.985  40.797  -0.266  1.00  0.00    +0.011 A 
ATOM     13  C   UNL     1      29.753  42.939   0.188  1.00  0.00    +0.001 A 
ATOM     14  C   UNL     1      29.120  40.991  -1.078  1.00  0.00    +0.011 A 
ATOM     15  C   UNL     1      29.995  42.054  -0.853  1.00  0.00    +0.001 A 
BRANCH  12  16
ATOM     16  C   UNL     1      27.109  39.647  -0.532  1.00  0.00    +0.089 A 
ATOM     17  N   UNL     1      25.985  39.961  -1.243  1.00  0.00    -0.255 NA
ATOM     18  C   UNL     1      27.385  38.346  -0.101  1.00  0.00    +0.067 A 
ATOM     19  C   UNL     1      25.123  38.954  -1.518  1.00  0.00    +0.112 A 
ATOM     20  C   UNL     1      26.474  37.336  -0.407  1.00  0.00    +0.024 A 
ATOM     21  C   UNL     1      25.321  37.642  -1.126  1.00  0.00    +0.022 A 
ATOM     22 Cl   UNL     1      28.803  37.937   0.790  1.00  0.00    -0.082 Cl
ENDBRANCH  12  16
ENDBRANCH   6  10
BRANCH   3  23
ATOM     23  N   UNL     1      23.109  41.291   3.943  1.00  0.00    -0.355 N 
ATOM     24  C   UNL     1      21.918  41.844   3.277  1.00  0.00    +0.120 C 
ATOM     25  C   UNL     1      22.877  40.070   4.705  1.00  0.00    +0.120 C 
ATOM     26  C   UNL     1      20.632  41.529   4.053  1.00  0.00    +0.040 C 
ATOM     27  C   UNL     1      21.911  40.359   5.861  1.00  0.00    +0.040 C 
ATOM     28  C   UNL     1      20.901  41.490   5.561  1.00  0.00    +0.060 C 
BRANCH  28  29
ATOM     29  N   UNL     1      19.676  41.307   6.370  1.00  0.00    -0.299 NA
ATOM     30  C   UNL     1      18.943  40.077   6.039  1.00  0.00    +0.086 C 
ATOM     31  C   UNL     1      19.919  41.236   7.822  1.00  0.00    +0.103 C 
ATOM     32  C   UNL     1      18.218  39.655   7.319  1.00  0.00    +0.035 C 
ATOM     33  C   UNL     1      18.581  40.711   8.360  1.00  0.00    +0.066 C 
BRANCH  33  34
ATOM     34  N   UNL     1      17.574  41.782   8.412  1.00  0.00    -0.326 NA
ATOM     35  H   UNL     1      17.725  42.434   7.647  1.00  0.00    +0.119 HD
ATOM     36  H   UNL     1      17.736  42.310   9.274  1.00  0.00    +0.119 HD
ENDBRANCH  33  34
ENDBRANCH  28  29
ENDBRANCH   3  23
TORSDOF 6
ENDMDL
