REMARK SMILES Nc1nc(N2CCC(N3CC[C@H](N)C3)CC2)cnc1-c1ccccc1-c1cccc(C(F)(F)F)c1
REMARK SMILES IDX 2 1 3 2 4 3 17 4 18 5 19 6 1 7 20 10 21 11 25 12 22 13 24 14
REMARK SMILES IDX 23 15 26 16 27 17 35 18 28 19 30 20 29 21 31 22 32 23 33 24
REMARK SMILES IDX 34 25 5 26 6 27 16 28 7 29 15 30 8 31 9 32 10 33 14 34 11 35
REMARK SMILES IDX 12 36 13 37
REMARK H PARENT 1 8 1 9 13 38 13 39
ROOT
ATOM      1  C   UNL     1      -1.984   1.499  -1.079  1.00  0.00    +0.152 A 
ATOM      2  N   UNL     1      -0.757   1.328  -0.542  1.00  0.00    -0.210 NA
ATOM      3  C   UNL     1      -0.181   0.104  -0.627  1.00  0.00    +0.149 A 
ATOM      4  C   UNL     1      -0.862  -0.907  -1.318  1.00  0.00    +0.158 A 
ATOM      5  N   UNL     1      -2.098  -0.775  -1.864  1.00  0.00    -0.248 NA
ATOM      6  C   UNL     1      -2.668   0.446  -1.711  1.00  0.00    +0.113 A 
ENDROOT
BRANCH   1   7
ATOM      7  N   UNL     1      -2.519   2.783  -0.934  1.00  0.00    -0.382 N 
ATOM      8  H   UNL     1      -1.799   3.361  -0.514  1.00  0.00    +0.158 HD
ATOM      9  H   UNL     1      -2.855   3.146  -1.818  1.00  0.00    +0.158 HD
ENDBRANCH   1   7
BRANCH   6  10
ATOM     10  C   UNL     1      -4.022   0.581  -2.270  1.00  0.00    +0.012 A 
ATOM     11  C   UNL     1      -4.176   0.646  -3.670  1.00  0.00    +0.011 A 
ATOM     12  C   UNL     1      -5.174   0.658  -1.447  1.00  0.00    -0.009 A 
ATOM     13  C   UNL     1      -5.432   0.817  -4.251  1.00  0.00    +0.001 A 
ATOM     14  C   UNL     1      -6.431   0.838  -2.057  1.00  0.00    +0.009 A 
ATOM     15  C   UNL     1      -6.559   0.921  -3.444  1.00  0.00    +0.001 A 
BRANCH  12  16
ATOM     16  C   UNL     1      -5.102   0.531   0.020  1.00  0.00    -0.017 A 
ATOM     17  C   UNL     1      -5.404   1.617   0.855  1.00  0.00    +0.009 A 
ATOM     18  C   UNL     1      -4.717  -0.682   0.616  1.00  0.00    +0.021 A 
ATOM     19  C   UNL     1      -5.311   1.500   2.243  1.00  0.00    +0.001 A 
ATOM     20  C   UNL     1      -4.624  -0.816   2.012  1.00  0.00    +0.056 A 
ATOM     21  C   UNL     1      -4.920   0.291   2.818  1.00  0.00    +0.013 A 
BRANCH  20  22
ATOM     22  C   UNL     1      -4.177  -2.123   2.615  1.00  0.00    +0.416 C 
ATOM     23  F   UNL     1      -4.453  -2.226   3.948  1.00  0.00    -0.166 F 
ATOM     24  F   UNL     1      -2.833  -2.325   2.498  1.00  0.00    -0.166 F 
ATOM     25  F   UNL     1      -4.769  -3.205   2.036  1.00  0.00    -0.166 F 
ENDBRANCH  20  22
ENDBRANCH  12  16
ENDBRANCH   6  10
BRANCH   3  26
ATOM     26  N   UNL     1       1.100  -0.081  -0.088  1.00  0.00    -0.355 N 
ATOM     27  C   UNL     1       1.635   1.107   0.598  1.00  0.00    +0.120 C 
ATOM     28  C   UNL     1       1.401  -1.349   0.571  1.00  0.00    +0.120 C 
ATOM     29  C   UNL     1       2.964   0.806   1.302  1.00  0.00    +0.040 C 
ATOM     30  C   UNL     1       2.916  -1.584   0.564  1.00  0.00    +0.040 C 
ATOM     31  C   UNL     1       3.745  -0.279   0.549  1.00  0.00    +0.060 C 
BRANCH  31  32
ATOM     32  N   UNL     1       5.094  -0.501   1.108  1.00  0.00    -0.299 NA
ATOM     33  C   UNL     1       5.944   0.699   1.105  1.00  0.00    +0.086 C 
ATOM     34  C   UNL     1       5.866  -1.526   0.388  1.00  0.00    +0.103 C 
ATOM     35  C   UNL     1       7.387   0.205   0.998  1.00  0.00    +0.035 C 
ATOM     36  C   UNL     1       7.276  -1.313   0.943  1.00  0.00    +0.066 C 
BRANCH  36  37
ATOM     37  N   UNL     1       8.339  -1.938   0.162  1.00  0.00    -0.326 NA
ATOM     38  H   UNL     1       8.322  -1.596  -0.797  1.00  0.00    +0.119 HD
ATOM     39  H   UNL     1       9.244  -1.664   0.544  1.00  0.00    +0.119 HD
ENDBRANCH  36  37
ENDBRANCH  31  32
ENDBRANCH   3  26
TORSDOF 7
