MODEL 1
REMARK VINA RESULT:    -8.280      0.000      0.000
REMARK INTER + INTRA:         -12.556
REMARK INTER:                 -11.185
REMARK INTRA:                  -1.372
REMARK UNBOUND:                -1.372
REMARK SMILES CN1CCC(N)(C2CCN(c3cnc(-c4ccccc4-c4cccc(C(F)(F)F)c4)c(N)n3)CC2)CC1
REMARK SMILES IDX 11 1 12 2 13 3 14 4 31 5 33 6 10 7 7 8 8 9 35 10 9 11 34 12
REMARK SMILES IDX 5 13 2 14 3 15 37 16 4 17 36 18 1 19 6 20 32 23 15 26 16 27
REMARK SMILES IDX 20 28 17 29 19 30 18 31 21 32 22 33 30 34 23 35 25 36 24 37
REMARK SMILES IDX 26 38 27 39 28 40 29 41
REMARK H PARENT 6 21 6 22 32 24 32 25
ROOT
ATOM      1  C   UNL     1      26.561  39.690   1.707  1.00  0.00    +0.149 A 
ATOM      2  C   UNL     1      26.933  38.346   1.846  1.00  0.00    +0.158 A 
ATOM      3  N   UNL     1      28.088  37.815   1.373  1.00  0.00    -0.248 NA
ATOM      4  C   UNL     1      28.900  38.691   0.728  1.00  0.00    +0.113 A 
ATOM      5  C   UNL     1      28.573  40.055   0.617  1.00  0.00    +0.152 A 
ATOM      6  N   UNL     1      27.412  40.550   1.099  1.00  0.00    -0.210 NA
ENDROOT
BRANCH   1   7
ATOM      7  N   UNL     1      25.329  40.165   2.206  1.00  0.00    -0.355 N 
ATOM      8  C   UNL     1      22.945  41.240   3.192  1.00  0.00    +0.012 C 
ATOM      9  C   UNL     1      23.807  40.371   4.131  1.00  0.00    +0.027 C 
ATOM     10  C   UNL     1      23.877  42.183   2.406  1.00  0.00    +0.027 C 
ATOM     11  C   UNL     1      25.256  40.177   3.666  1.00  0.00    +0.118 C 
ATOM     12  C   UNL     1      24.869  41.393   1.540  1.00  0.00    +0.118 C 
BRANCH   8  13
ATOM     13  C   UNL     1      21.683  41.946   3.828  1.00  0.00    +0.021 C 
ATOM     14  N   UNL     1      20.219  40.539   6.014  1.00  0.00    -0.306 NA
ATOM     15  C   UNL     1      21.529  41.140   6.272  1.00  0.00    +0.086 C 
ATOM     16  C   UNL     1      20.074  40.075   4.632  1.00  0.00    +0.086 C 
ATOM     17  C   UNL     1      21.803  42.307   5.325  1.00  0.00    +0.038 C 
ATOM     18  C   UNL     1      20.361  41.175   3.603  1.00  0.00    +0.038 C 
ATOM     19  C   UNL     1      19.953  39.452   6.955  1.00  0.00    +0.105 C 
BRANCH  13  20
ATOM     20  N   UNL     1      21.524  43.235   3.106  1.00  0.00    -0.325 NA
ATOM     21  H   UNL     1      21.576  43.104   2.097  1.00  0.00    +0.119 HD
ATOM     22  H   UNL     1      20.621  43.656   3.317  1.00  0.00    +0.119 HD
ENDBRANCH  13  20
ENDBRANCH   8  13
ENDBRANCH   1   7
BRANCH   5  23
ATOM     23  N   UNL     1      29.391  40.990  -0.028  1.00  0.00    -0.382 N 
ATOM     24  H   UNL     1      29.860  40.588  -0.831  1.00  0.00    +0.158 HD
ATOM     25  H   UNL     1      30.037  41.350   0.669  1.00  0.00    +0.158 HD
ENDBRANCH   5  23
BRANCH   4  26
ATOM     26  C   UNL     1      30.126  38.114   0.162  1.00  0.00    +0.012 A 
ATOM     27  C   UNL     1      31.291  38.060   0.950  1.00  0.00    +0.011 A 
ATOM     28  C   UNL     1      30.171  37.617  -1.165  1.00  0.00    -0.009 A 
ATOM     29  C   UNL     1      32.485  37.554   0.436  1.00  0.00    +0.001 A 
ATOM     30  C   UNL     1      31.387  37.116  -1.666  1.00  0.00    +0.009 A 
ATOM     31  C   UNL     1      32.536  37.087  -0.873  1.00  0.00    +0.001 A 
BRANCH  28  32
ATOM     32  C   UNL     1      28.976  37.581  -2.024  1.00  0.00    -0.017 A 
ATOM     33  C   UNL     1      28.134  36.461  -2.046  1.00  0.00    +0.009 A 
ATOM     34  C   UNL     1      28.666  38.671  -2.854  1.00  0.00    +0.021 A 
ATOM     35  C   UNL     1      27.013  36.427  -2.878  1.00  0.00    +0.001 A 
ATOM     36  C   UNL     1      27.538  38.654  -3.690  1.00  0.00    +0.056 A 
ATOM     37  C   UNL     1      26.716  37.517  -3.697  1.00  0.00    +0.013 A 
BRANCH  36  38
ATOM     38  C   UNL     1      27.248  39.821  -4.599  1.00  0.00    +0.416 C 
ATOM     39  F   UNL     1      26.178  39.615  -5.418  1.00  0.00    -0.166 F 
ATOM     40  F   UNL     1      26.976  40.964  -3.906  1.00  0.00    -0.166 F 
ATOM     41  F   UNL     1      28.289  40.128  -5.425  1.00  0.00    -0.166 F 
ENDBRANCH  36  38
ENDBRANCH  28  32
ENDBRANCH   4  26
TORSDOF 7
ENDMDL
