MODEL 1
REMARK VINA RESULT:    -8.035      0.000      0.000
REMARK INTER + INTRA:         -11.675
REMARK INTER:                 -10.383
REMARK INTRA:                  -1.291
REMARK UNBOUND:                -1.291
REMARK SMILES CN1CCC(N)(C2CCN(c3cnc(-c4ccccc4-c4ncccc4Cl)c(N)n3)CC2)CC1
REMARK SMILES IDX 7 1 8 2 9 3 10 4 31 5 32 6 5 7 2 8 3 9 34 10 4 11 33 12 1 13
REMARK SMILES IDX 6 14 11 17 12 18 30 19 13 20 28 21 14 22 29 23 15 26 16 27
REMARK SMILES IDX 20 28 17 29 19 30 18 31 21 32 22 33 26 34 23 35 25 36 24 37
REMARK SMILES IDX 27 38
REMARK H PARENT 6 15 6 16 29 24 29 25
ROOT
ATOM      1  C   UNL     1      19.487  40.665   6.575  1.00  0.00    +0.012 C 
ATOM      2  C   UNL     1      20.838  40.077   7.048  1.00  0.00    +0.027 C 
ATOM      3  C   UNL     1      22.015  40.671   6.269  1.00  0.00    +0.118 C 
ATOM      4  N   UNL     1      21.826  40.435   4.831  1.00  0.00    -0.355 N 
ATOM      5  C   UNL     1      20.586  41.018   4.301  1.00  0.00    +0.118 C 
ATOM      6  C   UNL     1      19.383  40.435   5.046  1.00  0.00    +0.027 C 
ENDROOT
BRANCH   1   7
ATOM      7  C   UNL     1      18.231  40.145   7.375  1.00  0.00    +0.021 C 
ATOM      8  N   UNL     1      15.659  41.694   7.907  1.00  0.00    -0.306 NA
ATOM      9  C   UNL     1      16.991  42.171   8.304  1.00  0.00    +0.086 C 
ATOM     10  C   UNL     1      15.684  40.388   7.234  1.00  0.00    +0.086 C 
ATOM     11  C   UNL     1      17.935  41.013   8.634  1.00  0.00    +0.038 C 
ATOM     12  C   UNL     1      16.977  40.151   6.455  1.00  0.00    +0.038 C 
ATOM     13  C   UNL     1      14.950  42.707   7.133  1.00  0.00    +0.105 C 
BRANCH   7  14
ATOM     14  N   UNL     1      18.452  38.768   7.851  1.00  0.00    -0.325 NA
ATOM     15  H   UNL     1      17.673  38.168   7.586  1.00  0.00    +0.119 HD
ATOM     16  H   UNL     1      18.509  38.738   8.867  1.00  0.00    +0.119 HD
ENDBRANCH   7  14
ENDBRANCH   1   7
BRANCH   4  17
ATOM     17  C   UNL     1      22.958  40.819   4.070  1.00  0.00    +0.149 A 
ATOM     18  C   UNL     1      24.209  40.240   4.315  1.00  0.00    +0.158 A 
ATOM     19  N   UNL     1      22.848  41.779   3.124  1.00  0.00    -0.210 NA
ATOM     20  N   UNL     1      25.338  40.536   3.627  1.00  0.00    -0.248 NA
ATOM     21  C   UNL     1      23.958  42.098   2.420  1.00  0.00    +0.152 A 
ATOM     22  C   UNL     1      25.192  41.453   2.636  1.00  0.00    +0.113 A 
BRANCH  21  23
ATOM     23  N   UNL     1      23.773  43.106   1.468  1.00  0.00    -0.382 N 
ATOM     24  H   UNL     1      24.624  43.287   0.945  1.00  0.00    +0.158 HD
ATOM     25  H   UNL     1      23.437  43.927   1.963  1.00  0.00    +0.158 HD
ENDBRANCH  21  23
BRANCH  22  26
ATOM     26  C   UNL     1      26.425  41.757   1.885  1.00  0.00    +0.013 A 
ATOM     27  C   UNL     1      27.161  42.907   2.249  1.00  0.00    +0.011 A 
ATOM     28  C   UNL     1      26.912  40.946   0.827  1.00  0.00    +0.011 A 
ATOM     29  C   UNL     1      28.333  43.266   1.585  1.00  0.00    +0.001 A 
ATOM     30  C   UNL     1      28.108  41.325   0.180  1.00  0.00    +0.011 A 
ATOM     31  C   UNL     1      28.807  42.475   0.548  1.00  0.00    +0.001 A 
BRANCH  28  32
ATOM     32  C   UNL     1      26.240  39.698   0.413  1.00  0.00    +0.089 A 
ATOM     33  N   UNL     1      25.267  39.874  -0.526  1.00  0.00    -0.255 NA
ATOM     34  C   UNL     1      26.543  38.434   0.935  1.00  0.00    +0.067 A 
ATOM     35  C   UNL     1      24.605  38.781  -0.962  1.00  0.00    +0.112 A 
ATOM     36  C   UNL     1      25.835  37.327   0.465  1.00  0.00    +0.024 A 
ATOM     37  C   UNL     1      24.850  37.501  -0.501  1.00  0.00    +0.022 A 
ATOM     38 Cl   UNL     1      27.764  38.170   2.128  1.00  0.00    -0.082 Cl
ENDBRANCH  28  32
ENDBRANCH  22  26
ENDBRANCH   4  17
TORSDOF 6
ENDMDL
