REMARK SMILES CN1CCC(N)(C2CCN(c3cnc(-c4ccccc4-c4ncccc4Cl)c(N)n3)CC2)CC1
REMARK SMILES IDX 7 1 8 2 9 3 10 4 31 5 32 6 5 7 2 8 3 9 34 10 4 11 33 12 1 13
REMARK SMILES IDX 6 14 11 17 12 18 30 19 13 20 28 21 14 22 29 23 15 26 16 27
REMARK SMILES IDX 20 28 17 29 19 30 18 31 21 32 22 33 26 34 23 35 25 36 24 37
REMARK SMILES IDX 27 38
REMARK H PARENT 6 15 6 16 29 24 29 25
ROOT
ATOM      1  C   UNL     1       3.054  -0.604   0.123  1.00  0.00    +0.012 C 
ATOM      2  C   UNL     1       2.266  -1.931   0.250  1.00  0.00    +0.027 C 
ATOM      3  C   UNL     1       0.754  -1.695   0.202  1.00  0.00    +0.118 C 
ATOM      4  N   UNL     1       0.365  -0.761   1.268  1.00  0.00    -0.355 N 
ATOM      5  C   UNL     1       1.034   0.544   1.175  1.00  0.00    +0.118 C 
ATOM      6  C   UNL     1       2.551   0.350   1.235  1.00  0.00    +0.027 C 
ENDROOT
BRANCH   1   7
ATOM      7  C   UNL     1       4.622  -0.774   0.102  1.00  0.00    +0.021 C 
ATOM      8  N   UNL     1       6.514   0.179  -2.091  1.00  0.00    -0.306 NA
ATOM      9  C   UNL     1       5.389  -0.736  -2.330  1.00  0.00    +0.086 C 
ATOM     10  C   UNL     1       6.646   0.586  -0.685  1.00  0.00    +0.086 C 
ATOM     11  C   UNL     1       5.106  -1.619  -1.113  1.00  0.00    +0.038 C 
ATOM     12  C   UNL     1       5.305   0.622   0.047  1.00  0.00    +0.038 C 
ATOM     13  C   UNL     1       6.462   1.320  -2.999  1.00  0.00    +0.105 C 
BRANCH   7  14
ATOM     14  N   UNL     1       5.085  -1.470   1.316  1.00  0.00    -0.325 NA
ATOM     15  H   UNL     1       4.714  -2.418   1.349  1.00  0.00    +0.119 HD
ATOM     16  H   UNL     1       4.752  -0.999   2.155  1.00  0.00    +0.119 HD
ENDBRANCH   7  14
ENDBRANCH   1   7
BRANCH   4  17
ATOM     17  C   UNL     1      -1.041  -0.627   1.378  1.00  0.00    +0.149 A 
ATOM     18  C   UNL     1      -1.609   0.035   2.473  1.00  0.00    +0.158 A 
ATOM     19  N   UNL     1      -1.852  -1.173   0.443  1.00  0.00    -0.210 NA
ATOM     20  N   UNL     1      -2.939   0.222   2.650  1.00  0.00    -0.248 NA
ATOM     21  C   UNL     1      -3.186  -1.005   0.592  1.00  0.00    +0.152 A 
ATOM     22  C   UNL     1      -3.733  -0.275   1.666  1.00  0.00    +0.113 A 
BRANCH  21  23
ATOM     23  N   UNL     1      -3.962  -1.606  -0.404  1.00  0.00    -0.382 N 
ATOM     24  H   UNL     1      -4.698  -2.182  -0.008  1.00  0.00    +0.158 HD
ATOM     25  H   UNL     1      -3.330  -2.135  -0.998  1.00  0.00    +0.158 HD
ENDBRANCH  21  23
BRANCH  22  26
ATOM     26  C   UNL     1      -5.178  -0.054   1.863  1.00  0.00    +0.013 A 
ATOM     27  C   UNL     1      -5.785  -0.600   3.016  1.00  0.00    +0.011 A 
ATOM     28  C   UNL     1      -5.982   0.688   0.958  1.00  0.00    +0.011 A 
ATOM     29  C   UNL     1      -7.147  -0.440   3.271  1.00  0.00    +0.001 A 
ATOM     30  C   UNL     1      -7.355   0.846   1.247  1.00  0.00    +0.011 A 
ATOM     31  C   UNL     1      -7.933   0.282   2.385  1.00  0.00    +0.001 A 
BRANCH  28  32
ATOM     32  C   UNL     1      -5.425   1.340  -0.244  1.00  0.00    +0.089 A 
ATOM     33  N   UNL     1      -4.539   2.341   0.025  1.00  0.00    -0.255 NA
ATOM     34  C   UNL     1      -5.772   0.993  -1.556  1.00  0.00    +0.067 A 
ATOM     35  C   UNL     1      -3.980   2.987  -1.020  1.00  0.00    +0.112 A 
ATOM     36  C   UNL     1      -5.178   1.686  -2.612  1.00  0.00    +0.024 A 
ATOM     37  C   UNL     1      -4.265   2.699  -2.342  1.00  0.00    +0.022 A 
ATOM     38 Cl   UNL     1      -6.892  -0.265  -1.939  1.00  0.00    -0.082 Cl
ENDBRANCH  28  32
ENDBRANCH  22  26
ENDBRANCH   4  17
TORSDOF 6
