REMARK SMILES Nc1nc(N2CCC(N3CC[C@H](N)C3)CC2)cnc1-c1ccccc1-c1ncccc1Cl
REMARK SMILES IDX 2 1 3 2 4 3 17 4 18 5 19 6 1 7 20 10 21 11 25 12 22 13 24 14
REMARK SMILES IDX 23 15 26 16 27 17 31 18 28 19 30 20 29 21 32 22 5 23 6 24
REMARK SMILES IDX 16 25 7 26 15 27 8 28 9 29 10 30 14 31 11 32 12 33 13 34
REMARK H PARENT 1 8 1 9 13 35 13 36
ROOT
ATOM      1  C   UNL     1       2.266   0.831  -1.329  1.00  0.00    +0.152 A 
ATOM      2  N   UNL     1       0.989   0.425  -1.141  1.00  0.00    -0.210 NA
ATOM      3  C   UNL     1       0.439   0.537   0.091  1.00  0.00    +0.149 A 
ATOM      4  C   UNL     1       1.214   1.101   1.111  1.00  0.00    +0.158 A 
ATOM      5  N   UNL     1       2.500   1.514   0.973  1.00  0.00    -0.248 NA
ATOM      6  C   UNL     1       3.026   1.363  -0.267  1.00  0.00    +0.113 A 
ENDROOT
BRANCH   1   7
ATOM      7  N   UNL     1       2.779   0.690  -2.633  1.00  0.00    -0.382 N 
ATOM      8  H   UNL     1       3.597   0.073  -2.575  1.00  0.00    +0.158 HD
ATOM      9  H   UNL     1       3.128   1.587  -2.951  1.00  0.00    +0.158 HD
ENDBRANCH   1   7
BRANCH   6  10
ATOM     10  C   UNL     1       4.403   1.860  -0.416  1.00  0.00    +0.013 A 
ATOM     11  C   UNL     1       4.626   3.251  -0.369  1.00  0.00    +0.011 A 
ATOM     12  C   UNL     1       5.514   1.000  -0.593  1.00  0.00    +0.011 A 
ATOM     13  C   UNL     1       5.904   3.787  -0.522  1.00  0.00    +0.001 A 
ATOM     14  C   UNL     1       6.796   1.562  -0.756  1.00  0.00    +0.011 A 
ATOM     15  C   UNL     1       6.988   2.943  -0.722  1.00  0.00    +0.001 A 
BRANCH  12  16
ATOM     16  C   UNL     1       5.372  -0.463  -0.613  1.00  0.00    +0.089 A 
ATOM     17  N   UNL     1       5.022  -0.967  -1.834  1.00  0.00    -0.255 NA
ATOM     18  C   UNL     1       5.570  -1.276   0.506  1.00  0.00    +0.067 A 
ATOM     19  C   UNL     1       4.861  -2.308  -1.929  1.00  0.00    +0.112 A 
ATOM     20  C   UNL     1       5.398  -2.653   0.367  1.00  0.00    +0.024 A 
ATOM     21  C   UNL     1       5.036  -3.181  -0.870  1.00  0.00    +0.022 A 
ATOM     22 Cl   UNL     1       6.019  -0.652   2.049  1.00  0.00    -0.082 Cl
ENDBRANCH  12  16
ENDBRANCH   6  10
BRANCH   3  23
ATOM     23  N   UNL     1      -0.895   0.152   0.273  1.00  0.00    -0.355 N 
ATOM     24  C   UNL     1      -1.506  -0.445  -0.927  1.00  0.00    +0.120 C 
ATOM     25  C   UNL     1      -1.294  -0.457   1.536  1.00  0.00    +0.120 C 
ATOM     26  C   UNL     1      -2.900  -1.015  -0.633  1.00  0.00    +0.040 C 
ATOM     27  C   UNL     1      -2.799  -0.257   1.752  1.00  0.00    +0.040 C 
ATOM     28  C   UNL     1      -3.614  -0.186   0.440  1.00  0.00    +0.060 C 
BRANCH  28  29
ATOM     29  N   UNL     1      -5.008  -0.616   0.682  1.00  0.00    -0.299 NA
ATOM     30  C   UNL     1      -5.716   0.234   1.650  1.00  0.00    +0.086 C 
ATOM     31  C   UNL     1      -5.855  -0.620  -0.524  1.00  0.00    +0.103 C 
ATOM     32  C   UNL     1      -7.197   0.170   1.270  1.00  0.00    +0.035 C 
ATOM     33  C   UNL     1      -7.268  -0.756   0.059  1.00  0.00    +0.066 C 
BRANCH  33  34
ATOM     34  N   UNL     1      -7.544  -2.144   0.460  1.00  0.00    -0.326 NA
ATOM     35  H   UNL     1      -8.336  -2.168   1.097  1.00  0.00    +0.119 HD
ATOM     36  H   UNL     1      -6.736  -2.472   0.996  1.00  0.00    +0.119 HD
ENDBRANCH  33  34
ENDBRANCH  28  29
ENDBRANCH   3  23
TORSDOF 6
