REMARK SMILES Nc1nc(N2CCC(N3CC(N)C3)CC2)cnc1-c1ccccc1-c1cccc(C(F)(F)F)c1
REMARK SMILES IDX 2 1 3 2 4 3 16 4 17 5 18 6 1 7 19 10 20 11 24 12 21 13 23 14
REMARK SMILES IDX 22 15 25 16 26 17 34 18 27 19 29 20 28 21 30 22 31 23 32 24
REMARK SMILES IDX 33 25 5 26 6 27 15 28 7 29 14 30 8 31 9 32 10 33 13 34 11 35
REMARK SMILES IDX 12 36
REMARK H PARENT 1 8 1 9 12 37 12 38
ROOT
ATOM      1  C   UNL     1      -1.316   0.866  -0.281  1.00  0.00    +0.152 A 
ATOM      2  N   UNL     1      -0.224   0.274   0.252  1.00  0.00    -0.210 NA
ATOM      3  C   UNL     1       0.225  -0.866  -0.323  1.00  0.00    +0.149 A 
ATOM      4  C   UNL     1      -0.464  -1.384  -1.429  1.00  0.00    +0.158 A 
ATOM      5  N   UNL     1      -1.557  -0.815  -1.994  1.00  0.00    -0.248 NA
ATOM      6  C   UNL     1      -1.992   0.318  -1.388  1.00  0.00    +0.113 A 
ENDROOT
BRANCH   1   7
ATOM      7  N   UNL     1      -1.719   2.044   0.358  1.00  0.00    -0.382 N 
ATOM      8  H   UNL     1      -1.021   2.248   1.068  1.00  0.00    +0.158 HD
ATOM      9  H   UNL     1      -1.838   2.802  -0.305  1.00  0.00    +0.158 HD
ENDBRANCH   1   7
BRANCH   6  10
ATOM     10  C   UNL     1      -3.183   0.933  -1.993  1.00  0.00    +0.012 A 
ATOM     11  C   UNL     1      -3.044   1.615  -3.219  1.00  0.00    +0.011 A 
ATOM     12  C   UNL     1      -4.461   0.869  -1.386  1.00  0.00    -0.009 A 
ATOM     13  C   UNL     1      -4.131   2.247  -3.824  1.00  0.00    +0.001 A 
ATOM     14  C   UNL     1      -5.544   1.519  -2.011  1.00  0.00    +0.009 A 
ATOM     15  C   UNL     1      -5.380   2.204  -3.216  1.00  0.00    +0.001 A 
BRANCH  12  16
ATOM     16  C   UNL     1      -4.704   0.126  -0.138  1.00  0.00    -0.017 A 
ATOM     17  C   UNL     1      -4.679  -1.277  -0.123  1.00  0.00    +0.009 A 
ATOM     18  C   UNL     1      -4.964   0.803   1.065  1.00  0.00    +0.021 A 
ATOM     19  C   UNL     1      -4.904  -1.986   1.059  1.00  0.00    +0.001 A 
ATOM     20  C   UNL     1      -5.187   0.103   2.263  1.00  0.00    +0.056 A 
ATOM     21  C   UNL     1      -5.156  -1.300   2.245  1.00  0.00    +0.013 A 
BRANCH  20  22
ATOM     22  C   UNL     1      -5.442   0.834   3.556  1.00  0.00    +0.416 C 
ATOM     23  F   UNL     1      -4.479   0.600   4.491  1.00  0.00    -0.166 F 
ATOM     24  F   UNL     1      -5.508   2.189   3.419  1.00  0.00    -0.166 F 
ATOM     25  F   UNL     1      -6.620   0.466   4.137  1.00  0.00    -0.166 F 
ENDBRANCH  20  22
ENDBRANCH  12  16
ENDBRANCH   6  10
BRANCH   3  26
ATOM     26  N   UNL     1       1.358  -1.521   0.198  1.00  0.00    -0.355 N 
ATOM     27  C   UNL     1       1.865  -0.990   1.474  1.00  0.00    +0.120 C 
ATOM     28  C   UNL     1       2.381  -1.817  -0.823  1.00  0.00    +0.120 C 
ATOM     29  C   UNL     1       3.098  -0.124   1.237  1.00  0.00    +0.040 C 
ATOM     30  C   UNL     1       3.715  -2.150  -0.163  1.00  0.00    +0.040 C 
ATOM     31  C   UNL     1       4.265  -0.962   0.662  1.00  0.00    +0.060 C 
BRANCH  31  32
ATOM     32  N   UNL     1       5.148  -0.117  -0.178  1.00  0.00    -0.297 NA
ATOM     33  C   UNL     1       5.838   0.951   0.604  1.00  0.00    +0.104 C 
ATOM     34  C   UNL     1       6.479  -0.761  -0.395  1.00  0.00    +0.104 C 
ATOM     35  C   UNL     1       7.041   0.013   0.813  1.00  0.00    +0.079 C 
BRANCH  35  36
ATOM     36  N   UNL     1       8.291   0.688   0.456  1.00  0.00    -0.325 NA
ATOM     37  H   UNL     1       9.089   0.060   0.382  1.00  0.00    +0.119 HD
ATOM     38  H   UNL     1       8.566   1.417   1.113  1.00  0.00    +0.119 HD
ENDBRANCH  35  36
ENDBRANCH  31  32
ENDBRANCH   3  26
TORSDOF 7
