MODEL 1
REMARK VINA RESULT:    -9.463      0.000      0.000
REMARK INTER + INTRA:         -14.255
REMARK INTER:                 -12.782
REMARK INTRA:                  -1.473
REMARK UNBOUND:                -1.473
REMARK SMILES Nc1nc(N2CCC(C3(N)CCNCC3)CC2)cnc1-c1ccccc1-c1cccc(C(F)(F)F)c1
REMARK SMILES IDX 2 1 3 2 4 3 18 4 19 5 20 6 1 7 21 10 22 11 26 12 23 13 25 14
REMARK SMILES IDX 24 15 27 16 28 17 36 18 29 19 31 20 30 21 32 22 33 23 34 24
REMARK SMILES IDX 35 25 5 26 6 27 17 28 7 29 16 30 8 31 9 32 11 33 15 34 12 35
REMARK SMILES IDX 14 36 13 37 10 39
REMARK H PARENT 1 8 1 9 13 38 10 40 10 41
ROOT
ATOM      1  C   UNL     1      26.572  41.261  -0.698  1.00  0.00    +0.152 A 
ATOM      2  N   UNL     1      25.513  40.994   0.098  1.00  0.00    -0.210 NA
ATOM      3  C   UNL     1      25.721  40.965   1.434  1.00  0.00    +0.149 A 
ATOM      4  C   UNL     1      27.008  41.205   1.934  1.00  0.00    +0.158 A 
ATOM      5  N   UNL     1      28.089  41.489   1.167  1.00  0.00    -0.248 NA
ATOM      6  C   UNL     1      27.858  41.489  -0.172  1.00  0.00    +0.113 A 
ENDROOT
BRANCH   1   7
ATOM      7  N   UNL     1      26.292  41.270  -2.069  1.00  0.00    -0.382 N 
ATOM      8  H   UNL     1      25.333  40.952  -2.186  1.00  0.00    +0.158 HD
ATOM      9  H   UNL     1      26.462  42.179  -2.483  1.00  0.00    +0.158 HD
ENDBRANCH   1   7
BRANCH   6  10
ATOM     10  C   UNL     1      29.036  41.769  -1.006  1.00  0.00    +0.012 A 
ATOM     11  C   UNL     1      29.361  43.111  -1.293  1.00  0.00    +0.011 A 
ATOM     12  C   UNL     1      29.853  40.740  -1.537  1.00  0.00    -0.009 A 
ATOM     13  C   UNL     1      30.447  43.435  -2.107  1.00  0.00    +0.001 A 
ATOM     14  C   UNL     1      30.943  41.090  -2.358  1.00  0.00    +0.009 A 
ATOM     15  C   UNL     1      31.234  42.423  -2.645  1.00  0.00    +0.001 A 
BRANCH  12  16
ATOM     16  C   UNL     1      29.620  39.316  -1.239  1.00  0.00    -0.017 A 
ATOM     17  C   UNL     1      30.405  38.645  -0.290  1.00  0.00    +0.009 A 
ATOM     18  C   UNL     1      28.611  38.599  -1.900  1.00  0.00    +0.021 A 
ATOM     19  C   UNL     1      30.188  37.297  -0.006  1.00  0.00    +0.001 A 
ATOM     20  C   UNL     1      28.370  37.245  -1.613  1.00  0.00    +0.056 A 
ATOM     21  C   UNL     1      29.176  36.598  -0.667  1.00  0.00    +0.013 A 
BRANCH  20  22
ATOM     22  C   UNL     1      27.285  36.490  -2.339  1.00  0.00    +0.416 C 
ATOM     23  F   UNL     1      27.090  36.920  -3.616  1.00  0.00    -0.166 F 
ATOM     24  F   UNL     1      27.556  35.159  -2.434  1.00  0.00    -0.166 F 
ATOM     25  F   UNL     1      26.069  36.579  -1.730  1.00  0.00    -0.166 F 
ENDBRANCH  20  22
ENDBRANCH  12  16
ENDBRANCH   6  10
BRANCH   3  26
ATOM     26  N   UNL     1      24.655  40.670   2.316  1.00  0.00    -0.355 N 
ATOM     27  C   UNL     1      25.133  40.198   3.623  1.00  0.00    +0.118 C 
ATOM     28  C   UNL     1      23.687  41.773   2.407  1.00  0.00    +0.118 C 
ATOM     29  C   UNL     1      23.941  39.718   4.455  1.00  0.00    +0.027 C 
ATOM     30  C   UNL     1      22.472  41.326   3.225  1.00  0.00    +0.027 C 
ATOM     31  C   UNL     1      22.885  40.836   4.634  1.00  0.00    +0.012 C 
BRANCH  31  32
ATOM     32  C   UNL     1      21.674  40.422   5.550  1.00  0.00    +0.021 C 
ATOM     33  C   UNL     1      21.171  41.576   6.445  1.00  0.00    +0.038 C 
ATOM     34  C   UNL     1      20.491  39.872   4.695  1.00  0.00    +0.038 C 
ATOM     35  C   UNL     1      19.929  41.200   7.268  1.00  0.00    +0.083 C 
ATOM     36  C   UNL     1      19.125  40.414   5.123  1.00  0.00    +0.083 C 
ATOM     37  N   UNL     1      18.953  40.353   6.572  1.00  0.00    -0.317 NA
ATOM     38  H   UNL     1      19.139  39.388   6.860  1.00  0.00    +0.122 HD
BRANCH  32  39
ATOM     39  N   UNL     1      22.099  39.312   6.434  1.00  0.00    -0.325 NA
ATOM     40  H   UNL     1      21.532  38.484   6.260  1.00  0.00    +0.119 HD
ATOM     41  H   UNL     1      23.065  39.051   6.242  1.00  0.00    +0.119 HD
ENDBRANCH  32  39
ENDBRANCH  31  32
ENDBRANCH   3  26
TORSDOF 7
ENDMDL
