MODEL 1
REMARK VINA RESULT:    -8.108      0.000      0.000
REMARK INTER + INTRA:         -21.501
REMARK INTER:                 -15.691
REMARK INTRA:                  -5.810
REMARK UNBOUND:                -5.810
REMARK SMILES CS(=O)(=O)c1ccc(Nc2nccc(-c3ccc(C(F)(F)F)cc3CCOCCOCCNc3cccc4c3C(=O)N([C@@H]3CCC(=O)NC3=O)C4=O)n2)cc1
REMARK SMILES IDX 27 1 26 2 25 3 24 4 15 5 16 6 17 7 23 8 18 9 14 10 10 11
REMARK SMILES IDX 11 12 53 13 12 14 13 15 9 16 8 18 5 19 6 20 55 21 7 22 54 23
REMARK SMILES IDX 2 24 3 25 4 26 1 27 19 28 20 29 21 30 22 31 28 32 29 33
REMARK SMILES IDX 30 34 31 35 32 36 33 37 34 39 35 40 39 41 36 42 38 43 40 44
REMARK SMILES IDX 37 45 51 46 41 47 42 48 52 49 43 50 44 51 49 52 45 53 48 54
REMARK SMILES IDX 50 55 46 56 47 57
REMARK H PARENT 9 17 33 38 48 58
ROOT
ATOM      1  O   UNL     1     -51.399  -3.019 -24.200  1.00  0.00    -0.379 OA
ENDROOT
BRANCH   1   2
ATOM      2  C   UNL     1     -51.339  -3.564 -22.880  1.00  0.00    +0.165 C 
BRANCH   2   3
ATOM      3  C   UNL     1     -50.697  -2.592 -21.886  1.00  0.00    +0.064 C 
BRANCH   3   4
ATOM      4  C   UNL     1     -50.068  -3.228 -20.656  1.00  0.00    -0.036 A 
ATOM      5  C   UNL     1     -49.919  -2.545 -19.422  1.00  0.00    +0.004 A 
ATOM      6  C   UNL     1     -49.337  -3.238 -18.339  1.00  0.00    +0.011 A 
ATOM      7  C   UNL     1     -48.911  -4.561 -18.461  1.00  0.00    +0.014 A 
ATOM      8  C   UNL     1     -49.627  -4.568 -20.763  1.00  0.00    +0.017 A 
ATOM      9  C   UNL     1     -49.055  -5.243 -19.674  1.00  0.00    +0.056 A 
BRANCH   5  10
ATOM     10  C   UNL     1     -50.333  -1.144 -19.213  1.00  0.00    +0.076 A 
ATOM     11  C   UNL     1     -50.946   0.862 -20.173  1.00  0.00    +0.227 A 
ATOM     12  N   UNL     1     -51.130   1.436 -18.976  1.00  0.00    -0.221 NA
ATOM     13  N   UNL     1     -50.542  -0.410 -20.326  1.00  0.00    -0.213 NA
ATOM     14  C   UNL     1     -50.908   0.684 -17.887  1.00  0.00    +0.117 A 
ATOM     15  C   UNL     1     -50.508  -0.626 -17.947  1.00  0.00    +0.049 A 
BRANCH  11  16
ATOM     16  N   UNL     1     -51.159   1.553 -21.365  1.00  0.00    -0.324 N 
ATOM     17  H   UNL     1     -50.985   2.534 -21.201  1.00  0.00    +0.170 HD
BRANCH  16  18
ATOM     18  C   UNL     1     -51.315   1.159 -22.700  1.00  0.00    +0.041 A 
ATOM     19  C   UNL     1     -51.769   0.304 -25.350  1.00  0.00    +0.067 A 
ATOM     20  C   UNL     1     -50.471   0.354 -24.851  1.00  0.00    +0.022 A 
ATOM     21  C   UNL     1     -52.850   0.653 -24.539  1.00  0.00    +0.022 A 
ATOM     22  C   UNL     1     -50.254   0.778 -23.532  1.00  0.00    +0.027 A 
ATOM     23  C   UNL     1     -52.618   1.073 -23.223  1.00  0.00    +0.027 A 
BRANCH  19  24
ATOM     24  S   UNL     1     -52.065  -0.254 -27.009  1.00  0.00    +0.175 S 
ATOM     25  O   UNL     1     -53.502  -0.364 -27.173  1.00  0.00    -0.224 OA
ATOM     26  O   UNL     1     -51.193  -1.388 -27.260  1.00  0.00    -0.224 OA
ATOM     27  C   UNL     1     -51.500   1.098 -28.010  1.00  0.00    +0.163 C 
ENDBRANCH  19  24
ENDBRANCH  16  18
ENDBRANCH  11  16
ENDBRANCH   5  10
BRANCH   9  28
ATOM     28  C   UNL     1     -48.577  -6.669 -19.810  1.00  0.00    +0.416 C 
ATOM     29  F   UNL     1     -48.617  -7.123 -21.093  1.00  0.00    -0.166 F 
ATOM     30  F   UNL     1     -47.292  -6.824 -19.391  1.00  0.00    -0.166 F 
ATOM     31  F   UNL     1     -49.316  -7.553 -19.080  1.00  0.00    -0.166 F 
ENDBRANCH   9  28
ENDBRANCH   3   4
ENDBRANCH   2   3
ENDBRANCH   1   2
BRANCH   1  32
ATOM     32  C   UNL     1     -50.830  -3.882 -25.189  1.00  0.00    +0.188 C 
BRANCH  32  33
ATOM     33  C   UNL     1     -49.900  -4.893 -24.515  1.00  0.00    +0.188 C 
BRANCH  33  34
ATOM     34  O   UNL     1     -48.513  -4.681 -24.791  1.00  0.00    -0.377 OA
BRANCH  34  35
ATOM     35  C   UNL     1     -48.185  -3.453 -25.448  1.00  0.00    +0.181 C 
BRANCH  35  36
ATOM     36  C   UNL     1     -47.446  -2.444 -24.555  1.00  0.00    +0.141 C 
BRANCH  36  37
ATOM     37  N   UNL     1     -47.105  -2.983 -23.237  1.00  0.00    -0.382 N 
ATOM     38  H   UNL     1     -46.454  -3.774 -23.272  1.00  0.00    +0.160 HD
BRANCH  37  39
ATOM     39  C   UNL     1     -46.925  -2.174 -22.121  1.00  0.00    +0.048 A 
ATOM     40  C   UNL     1     -47.404  -0.855 -22.031  1.00  0.00    +0.026 A 
ATOM     41  C   UNL     1     -46.365  -2.678 -20.952  1.00  0.00    +0.076 A 
ATOM     42  C   UNL     1     -47.269  -0.084 -20.852  1.00  0.00    +0.003 A 
ATOM     43  C   UNL     1     -46.237  -1.924 -19.795  1.00  0.00    +0.055 A 
ATOM     44  C   UNL     1     -45.795  -3.997 -20.661  1.00  0.00    +0.264 C 
ATOM     45  C   UNL     1     -46.672  -0.618 -19.713  1.00  0.00    +0.015 A 
ATOM     46  C   UNL     1     -45.602  -2.760 -18.782  1.00  0.00    +0.262 C 
ATOM     47  O   UNL     1     -45.675  -4.896 -21.475  1.00  0.00    -0.268 OA
ATOM     48  N   UNL     1     -45.425  -3.994 -19.342  1.00  0.00    -0.262 N 
ATOM     49  O   UNL     1     -45.291  -2.365 -17.674  1.00  0.00    -0.269 OA
BRANCH  48  50
ATOM     50  C   UNL     1     -44.694  -5.092 -18.721  1.00  0.00    +0.184 C 
ATOM     51  C   UNL     1     -45.131  -5.404 -17.291  1.00  0.00    +0.046 C 
ATOM     52  C   UNL     1     -43.190  -4.794 -18.772  1.00  0.00    +0.249 C 
ATOM     53  C   UNL     1     -44.303  -6.559 -16.743  1.00  0.00    +0.103 C 
ATOM     54  N   UNL     1     -42.406  -5.501 -17.886  1.00  0.00    -0.295 N 
ATOM     55  O   UNL     1     -42.673  -4.029 -19.581  1.00  0.00    -0.272 OA
ATOM     56  C   UNL     1     -42.825  -6.251 -16.816  1.00  0.00    +0.226 C 
ATOM     57  O   UNL     1     -42.024  -6.678 -15.990  1.00  0.00    -0.275 OA
ATOM     58  H   UNL     1     -41.420  -5.283 -17.912  1.00  0.00    +0.172 HD
ENDBRANCH  48  50
ENDBRANCH  37  39
ENDBRANCH  36  37
ENDBRANCH  35  36
ENDBRANCH  34  35
ENDBRANCH  33  34
ENDBRANCH  32  33
ENDBRANCH   1  32
TORSDOF 16
ENDMDL
