MODEL 1
REMARK VINA RESULT:    -8.561      0.000      0.000
REMARK INTER + INTRA:         -22.589
REMARK INTER:                 -18.071
REMARK INTRA:                  -4.518
REMARK UNBOUND:                -4.518
REMARK SMILES CS(=O)(=O)c1ccc(Nc2nccc(-c3ccc(C(F)(F)F)cc3CCOCCOCCOCCNc3cccc4c3CN([C@H]3CCC(=O)NC3=O)C4=O)n2)cc1
REMARK SMILES IDX 29 1 28 2 27 3 26 4 25 5 24 6 15 7 16 8 17 9 23 10 18 11
REMARK SMILES IDX 14 12 10 13 11 14 55 15 12 16 13 17 9 18 8 20 5 21 6 22
REMARK SMILES IDX 57 23 7 24 56 25 2 26 3 27 4 28 1 29 19 30 20 31 21 32 22 33
REMARK SMILES IDX 30 34 31 35 32 36 33 37 34 38 35 39 36 40 37 42 38 43 42 44
REMARK SMILES IDX 39 45 41 46 43 47 40 48 53 49 44 50 54 51 45 52 46 53 51 54
REMARK SMILES IDX 47 55 50 56 52 57 48 58 49 59
REMARK H PARENT 9 19 36 41 50 60
ROOT
ATOM      1  C   UNL     1     -48.927  -5.923 -20.520  1.00  0.00    +0.188 C 
ENDROOT
BRANCH   1   2
ATOM      2  C   UNL     1     -49.876  -4.842 -21.060  1.00  0.00    +0.188 C 
BRANCH   2   3
ATOM      3  O   UNL     1     -50.081  -4.925 -22.478  1.00  0.00    -0.379 OA
BRANCH   3   4
ATOM      4  C   UNL     1     -50.644  -3.750 -23.063  1.00  0.00    +0.165 C 
BRANCH   4   5
ATOM      5  C   UNL     1     -50.822  -2.614 -22.048  1.00  0.00    +0.064 C 
BRANCH   5   6
ATOM      6  C   UNL     1     -50.933  -1.275 -22.750  1.00  0.00    -0.036 A 
ATOM      7  C   UNL     1     -50.624  -0.031 -22.150  1.00  0.00    +0.004 A 
ATOM      8  C   UNL     1     -50.796   1.134 -22.936  1.00  0.00    +0.011 A 
ATOM      9  C   UNL     1     -51.247   1.089 -24.257  1.00  0.00    +0.014 A 
ATOM     10  C   UNL     1     -51.378  -1.302 -24.096  1.00  0.00    +0.017 A 
ATOM     11  C   UNL     1     -51.534  -0.135 -24.857  1.00  0.00    +0.056 A 
BRANCH   7  12
ATOM     12  C   UNL     1     -50.105   0.155 -20.776  1.00  0.00    +0.076 A 
ATOM     13  C   UNL     1     -50.606   0.978 -18.666  1.00  0.00    +0.227 A 
ATOM     14  N   UNL     1     -49.431   0.566 -18.167  1.00  0.00    -0.221 NA
ATOM     15  N   UNL     1     -50.955   0.800 -19.944  1.00  0.00    -0.213 NA
ATOM     16  C   UNL     1     -48.606  -0.082 -19.008  1.00  0.00    +0.117 A 
ATOM     17  C   UNL     1     -48.901  -0.333 -20.325  1.00  0.00    +0.049 A 
BRANCH  13  18
ATOM     18  N   UNL     1     -51.469   1.571 -17.744  1.00  0.00    -0.324 N 
ATOM     19  H   UNL     1     -52.359   1.727 -18.197  1.00  0.00    +0.170 HD
BRANCH  18  20
ATOM     20  C   UNL     1     -51.258   2.201 -16.511  1.00  0.00    +0.041 A 
ATOM     21  C   UNL     1     -50.792   3.355 -13.979  1.00  0.00    +0.067 A 
ATOM     22  C   UNL     1     -51.455   4.083 -14.967  1.00  0.00    +0.022 A 
ATOM     23  C   UNL     1     -50.363   2.054 -14.235  1.00  0.00    +0.022 A 
ATOM     24  C   UNL     1     -51.675   3.508 -16.224  1.00  0.00    +0.027 A 
ATOM     25  C   UNL     1     -50.588   1.491 -15.497  1.00  0.00    +0.027 A 
BRANCH  21  26
ATOM     26  S   UNL     1     -50.547   4.070 -12.373  1.00  0.00    +0.175 S 
ATOM     27  O   UNL     1     -49.886   5.349 -12.561  1.00  0.00    -0.224 OA
ATOM     28  O   UNL     1     -51.808   3.983 -11.660  1.00  0.00    -0.224 OA
ATOM     29  C   UNL     1     -49.396   2.967 -11.600  1.00  0.00    +0.163 C 
ENDBRANCH  21  26
ENDBRANCH  18  20
ENDBRANCH  13  18
ENDBRANCH   7  12
BRANCH  11  30
ATOM     30  C   UNL     1     -52.028  -0.208 -26.282  1.00  0.00    +0.416 C 
ATOM     31  F   UNL     1     -53.299   0.263 -26.406  1.00  0.00    -0.166 F 
ATOM     32  F   UNL     1     -52.058  -1.481 -26.764  1.00  0.00    -0.166 F 
ATOM     33  F   UNL     1     -51.274   0.508 -27.159  1.00  0.00    -0.166 F 
ENDBRANCH  11  30
ENDBRANCH   5   6
ENDBRANCH   4   5
ENDBRANCH   3   4
ENDBRANCH   2   3
ENDBRANCH   1   2
BRANCH   1  34
ATOM     34  O   UNL     1     -48.531  -5.737 -19.163  1.00  0.00    -0.377 OA
BRANCH  34  35
ATOM     35  C   UNL     1     -48.942  -4.532 -18.516  1.00  0.00    +0.188 C 
BRANCH  35  36
ATOM     36  C   UNL     1     -47.827  -3.653 -17.941  1.00  0.00    +0.188 C 
BRANCH  36  37
ATOM     37  O   UNL     1     -46.575  -3.916 -18.581  1.00  0.00    -0.377 OA
BRANCH  37  38
ATOM     38  C   UNL     1     -45.942  -2.701 -19.010  1.00  0.00    +0.181 C 
BRANCH  38  39
ATOM     39  C   UNL     1     -45.469  -2.867 -20.458  1.00  0.00    +0.141 C 
BRANCH  39  40
ATOM     40  N   UNL     1     -46.460  -3.570 -21.271  1.00  0.00    -0.382 N 
ATOM     41  H   UNL     1     -47.191  -3.960 -20.674  1.00  0.00    +0.160 HD
BRANCH  40  42
ATOM     42  C   UNL     1     -46.939  -3.072 -22.475  1.00  0.00    +0.040 A 
ATOM     43  C   UNL     1     -47.250  -1.723 -22.711  1.00  0.00    +0.026 A 
ATOM     44  C   UNL     1     -46.990  -3.905 -23.587  1.00  0.00    +0.007 A 
ATOM     45  C   UNL     1     -47.635  -1.245 -23.983  1.00  0.00    +0.003 A 
ATOM     46  C   UNL     1     -47.355  -3.420 -24.847  1.00  0.00    +0.047 A 
ATOM     47  C   UNL     1     -46.669  -5.361 -23.691  1.00  0.00    +0.159 C 
ATOM     48  C   UNL     1     -47.689  -2.103 -25.076  1.00  0.00    +0.014 A 
ATOM     49  C   UNL     1     -47.267  -4.520 -25.812  1.00  0.00    +0.255 C 
ATOM     50  N   UNL     1     -46.832  -5.631 -25.114  1.00  0.00    -0.322 N 
ATOM     51  O   UNL     1     -47.511  -4.433 -27.000  1.00  0.00    -0.269 OA
BRANCH  50  52
ATOM     52  C   UNL     1     -46.615  -6.933 -25.739  1.00  0.00    +0.176 C 
ATOM     53  C   UNL     1     -45.198  -7.085 -26.301  1.00  0.00    +0.045 C 
ATOM     54  C   UNL     1     -46.938  -8.109 -24.809  1.00  0.00    +0.249 C 
ATOM     55  C   UNL     1     -44.182  -7.229 -25.176  1.00  0.00    +0.103 C 
ATOM     56  N   UNL     1     -45.867  -8.744 -24.229  1.00  0.00    -0.295 N 
ATOM     57  O   UNL     1     -48.085  -8.403 -24.477  1.00  0.00    -0.272 OA
ATOM     58  C   UNL     1     -44.548  -8.370 -24.259  1.00  0.00    +0.226 C 
ATOM     59  O   UNL     1     -43.728  -8.908 -23.521  1.00  0.00    -0.275 OA
ATOM     60  H   UNL     1     -46.098  -9.475 -23.569  1.00  0.00    +0.172 HD
ENDBRANCH  50  52
ENDBRANCH  40  42
ENDBRANCH  39  40
ENDBRANCH  38  39
ENDBRANCH  37  38
ENDBRANCH  36  37
ENDBRANCH  35  36
ENDBRANCH  34  35
ENDBRANCH   1  34
TORSDOF 19
ENDMDL
