MODEL 1
REMARK VINA RESULT:    -9.355      0.000      0.000
REMARK INTER + INTRA:         -20.038
REMARK INTER:                 -16.465
REMARK INTRA:                  -3.572
REMARK UNBOUND:                -3.572
REMARK SMILES CS(=O)(=O)c1ccc(Nc2nccc(-c3ccc(C(F)(F)F)cc3CCOCCNc3cccc4c3CN([C@@H]3CCC(=O)NC3=O)C4=O)n2)cc1
REMARK SMILES IDX 26 1 25 2 24 3 15 4 16 5 17 6 23 7 18 8 14 9 10 10 11 11
REMARK SMILES IDX 49 12 12 13 13 14 9 15 8 17 5 18 6 19 51 20 7 21 50 22 2 23
REMARK SMILES IDX 3 24 4 25 1 26 19 27 20 28 21 29 22 30 27 31 28 32 29 33
REMARK SMILES IDX 30 34 31 36 32 37 36 38 33 39 35 40 37 41 34 42 47 43 38 44
REMARK SMILES IDX 48 45 39 46 40 47 45 48 41 49 44 50 46 51 42 52 43 53
REMARK H PARENT 9 16 30 35 44 54
ROOT
ATOM      1  C   UNL     1     -47.135  -1.916 -24.981  1.00  0.00    +0.165 C 
ENDROOT
BRANCH   1   2
ATOM      2  C   UNL     1     -47.970  -1.943 -23.698  1.00  0.00    +0.064 C 
BRANCH   2   3
ATOM      3  C   UNL     1     -49.155  -0.992 -23.754  1.00  0.00    -0.036 A 
ATOM      4  C   UNL     1     -49.573  -0.223 -22.643  1.00  0.00    +0.004 A 
ATOM      5  C   UNL     1     -50.676   0.646 -22.794  1.00  0.00    +0.011 A 
ATOM      6  C   UNL     1     -51.354   0.758 -24.010  1.00  0.00    +0.014 A 
ATOM      7  C   UNL     1     -49.858  -0.875 -24.970  1.00  0.00    +0.017 A 
ATOM      8  C   UNL     1     -50.951  -0.003 -25.113  1.00  0.00    +0.056 A 
BRANCH   4   9
ATOM      9  C   UNL     1     -48.916  -0.296 -21.335  1.00  0.00    +0.076 A 
ATOM     10  C   UNL     1     -49.181  -0.221 -19.053  1.00  0.00    +0.227 A 
ATOM     11  N   UNL     1     -47.856  -0.318 -18.847  1.00  0.00    -0.221 NA
ATOM     12  N   UNL     1     -49.739  -0.217 -20.270  1.00  0.00    -0.213 NA
ATOM     13  C   UNL     1     -47.072  -0.415 -19.931  1.00  0.00    +0.117 A 
ATOM     14  C   UNL     1     -47.550  -0.403 -21.214  1.00  0.00    +0.049 A 
BRANCH  10  15
ATOM     15  N   UNL     1     -50.066  -0.153 -17.981  1.00  0.00    -0.324 N 
ATOM     16  H   UNL     1     -50.979  -0.436 -18.305  1.00  0.00    +0.170 HD
BRANCH  15  17
ATOM     17  C   UNL     1     -50.091   0.705 -16.873  1.00  0.00    +0.041 A 
ATOM     18  C   UNL     1     -50.250   2.461 -14.690  1.00  0.00    +0.067 A 
ATOM     19  C   UNL     1     -49.279   1.458 -14.698  1.00  0.00    +0.022 A 
ATOM     20  C   UNL     1     -51.136   2.603 -15.754  1.00  0.00    +0.022 A 
ATOM     21  C   UNL     1     -49.215   0.578 -15.783  1.00  0.00    +0.027 A 
ATOM     22  C   UNL     1     -51.053   1.729 -16.838  1.00  0.00    +0.027 A 
BRANCH  18  23
ATOM     23  S   UNL     1     -50.338   3.567 -13.308  1.00  0.00    +0.175 S 
ATOM     24  O   UNL     1     -51.304   3.033 -12.367  1.00  0.00    -0.224 OA
ATOM     25  O   UNL     1     -50.481   4.910 -13.844  1.00  0.00    -0.224 OA
ATOM     26  C   UNL     1     -48.737   3.430 -12.552  1.00  0.00    +0.163 C 
ENDBRANCH  18  23
ENDBRANCH  15  17
ENDBRANCH  10  15
ENDBRANCH   4   9
BRANCH   8  27
ATOM     27  C   UNL     1     -51.700   0.115 -26.417  1.00  0.00    +0.416 C 
ATOM     28  F   UNL     1     -51.237   1.137 -27.188  1.00  0.00    -0.166 F 
ATOM     29  F   UNL     1     -51.603  -1.008 -27.181  1.00  0.00    -0.166 F 
ATOM     30  F   UNL     1     -53.035   0.336 -26.260  1.00  0.00    -0.166 F 
ENDBRANCH   8  27
ENDBRANCH   2   3
ENDBRANCH   1   2
BRANCH   1  31
ATOM     31  O   UNL     1     -47.121  -3.211 -25.583  1.00  0.00    -0.379 OA
BRANCH  31  32
ATOM     32  C   UNL     1     -47.188  -4.267 -24.622  1.00  0.00    +0.181 C 
BRANCH  32  33
ATOM     33  C   UNL     1     -47.862  -5.510 -25.218  1.00  0.00    +0.141 C 
BRANCH  33  34
ATOM     34  N   UNL     1     -48.922  -6.041 -24.343  1.00  0.00    -0.382 N 
ATOM     35  H   UNL     1     -49.452  -6.776 -24.804  1.00  0.00    +0.160 HD
BRANCH  34  36
ATOM     36  C   UNL     1     -49.717  -5.199 -23.569  1.00  0.00    +0.040 A 
ATOM     37  C   UNL     1     -50.802  -4.467 -24.080  1.00  0.00    +0.026 A 
ATOM     38  C   UNL     1     -49.379  -4.943 -22.244  1.00  0.00    +0.007 A 
ATOM     39  C   UNL     1     -51.556  -3.579 -23.282  1.00  0.00    +0.003 A 
ATOM     40  C   UNL     1     -50.136  -4.064 -21.461  1.00  0.00    +0.047 A 
ATOM     41  C   UNL     1     -48.263  -5.504 -21.417  1.00  0.00    +0.159 C 
ATOM     42  C   UNL     1     -51.230  -3.378 -21.943  1.00  0.00    +0.014 A 
ATOM     43  C   UNL     1     -49.560  -4.031 -20.111  1.00  0.00    +0.255 C 
ATOM     44  N   UNL     1     -48.424  -4.827 -20.137  1.00  0.00    -0.322 N 
ATOM     45  O   UNL     1     -50.023  -3.426 -19.165  1.00  0.00    -0.269 OA
BRANCH  44  46
ATOM     46  C   UNL     1     -47.759  -5.248 -18.913  1.00  0.00    +0.176 C 
ATOM     47  C   UNL     1     -46.237  -5.244 -19.030  1.00  0.00    +0.045 C 
ATOM     48  C   UNL     1     -48.211  -6.646 -18.463  1.00  0.00    +0.249 C 
ATOM     49  C   UNL     1     -45.625  -5.595 -17.683  1.00  0.00    +0.103 C 
ATOM     50  N   UNL     1     -47.481  -7.182 -17.425  1.00  0.00    -0.295 N 
ATOM     51  O   UNL     1     -49.128  -7.289 -18.970  1.00  0.00    -0.272 OA
ATOM     52  C   UNL     1     -46.159  -6.910 -17.170  1.00  0.00    +0.226 C 
ATOM     53  O   UNL     1     -45.458  -7.710 -16.554  1.00  0.00    -0.275 OA
ATOM     54  H   UNL     1     -47.770  -8.108 -17.141  1.00  0.00    +0.172 HD
ENDBRANCH  44  46
ENDBRANCH  34  36
ENDBRANCH  33  34
ENDBRANCH  32  33
ENDBRANCH  31  32
ENDBRANCH   1  31
TORSDOF 13
ENDMDL
