MODEL 1
REMARK VINA RESULT:    -8.773      0.000      0.000
REMARK INTER + INTRA:         -20.858
REMARK INTER:                 -14.928
REMARK INTRA:                  -5.930
REMARK UNBOUND:                -5.930
REMARK SMILES CS(=O)(=O)c1ccc(Nc2nccc(-c3ccc(C(F)(F)F)cc3CCCCNc3cccc4c3CN([C@@H]3CCC(=O)NC3=O)C4=O)n2)cc1
REMARK SMILES IDX 25 1 24 2 15 3 16 4 17 5 23 6 18 7 14 8 10 9 11 10 48 11
REMARK SMILES IDX 12 12 13 13 9 14 8 16 5 17 6 18 50 19 7 20 49 21 2 22 3 23
REMARK SMILES IDX 4 24 1 25 19 26 20 27 21 28 22 29 26 30 27 31 28 32 29 33
REMARK SMILES IDX 30 35 31 36 35 37 32 38 34 39 36 40 33 41 46 42 37 43 47 44
REMARK SMILES IDX 38 45 39 46 44 47 40 48 43 49 45 50 41 51 42 52
REMARK H PARENT 9 15 29 34 43 53
ROOT
ATOM      1  C   UNL     1     -46.314  -5.032 -21.217  1.00  0.00    +0.036 C 
ENDROOT
BRANCH   1   2
ATOM      2  C   UNL     1     -46.650  -3.595 -21.583  1.00  0.00    -0.038 A 
ATOM      3  C   UNL     1     -46.565  -2.516 -20.666  1.00  0.00    +0.004 A 
ATOM      4  C   UNL     1     -46.890  -1.224 -21.130  1.00  0.00    +0.011 A 
ATOM      5  C   UNL     1     -47.286  -0.994 -22.449  1.00  0.00    +0.014 A 
ATOM      6  C   UNL     1     -47.055  -3.344 -22.911  1.00  0.00    +0.017 A 
ATOM      7  C   UNL     1     -47.381  -2.053 -23.353  1.00  0.00    +0.056 A 
BRANCH   3   8
ATOM      8  C   UNL     1     -46.147  -2.684 -19.260  1.00  0.00    +0.076 A 
ATOM      9  C   UNL     1     -46.820  -2.999 -17.074  1.00  0.00    +0.227 A 
ATOM     10  N   UNL     1     -45.559  -2.940 -16.619  1.00  0.00    -0.221 NA
ATOM     11  N   UNL     1     -47.138  -2.877 -18.368  1.00  0.00    -0.213 NA
ATOM     12  C   UNL     1     -44.585  -2.778 -17.533  1.00  0.00    +0.117 A 
ATOM     13  C   UNL     1     -44.822  -2.643 -18.877  1.00  0.00    +0.049 A 
BRANCH   9  14
ATOM     14  N   UNL     1     -47.799  -3.145 -16.094  1.00  0.00    -0.324 N 
ATOM     15  H   UNL     1     -48.208  -4.065 -16.174  1.00  0.00    +0.170 HD
BRANCH  14  16
ATOM     16  C   UNL     1     -48.420  -2.246 -15.221  1.00  0.00    +0.041 A 
ATOM     17  C   UNL     1     -49.743  -0.561 -13.392  1.00  0.00    +0.067 A 
ATOM     18  C   UNL     1     -48.451  -0.251 -13.813  1.00  0.00    +0.022 A 
ATOM     19  C   UNL     1     -50.375  -1.717 -13.846  1.00  0.00    +0.022 A 
ATOM     20  C   UNL     1     -47.800  -1.094 -14.719  1.00  0.00    +0.027 A 
ATOM     21  C   UNL     1     -49.712  -2.550 -14.754  1.00  0.00    +0.027 A 
BRANCH  17  22
ATOM     22  S   UNL     1     -50.577   0.496 -12.234  1.00  0.00    +0.175 S 
ATOM     23  O   UNL     1     -50.027   1.829 -12.391  1.00  0.00    -0.224 OA
ATOM     24  O   UNL     1     -52.002   0.257 -12.361  1.00  0.00    -0.224 OA
ATOM     25  C   UNL     1     -50.059  -0.137 -10.660  1.00  0.00    +0.163 C 
ENDBRANCH  17  22
ENDBRANCH  14  16
ENDBRANCH   9  14
ENDBRANCH   3   8
BRANCH   7  26
ATOM     26  C   UNL     1     -47.779  -1.812 -24.790  1.00  0.00    +0.416 C 
ATOM     27  F   UNL     1     -48.324  -2.912 -25.383  1.00  0.00    -0.166 F 
ATOM     28  F   UNL     1     -46.721  -1.451 -25.568  1.00  0.00    -0.166 F 
ATOM     29  F   UNL     1     -48.702  -0.821 -24.930  1.00  0.00    -0.166 F 
ENDBRANCH   7  26
ENDBRANCH   1   2
BRANCH   1  30
ATOM     30  C   UNL     1     -47.039  -6.070 -22.077  1.00  0.00    +0.007 C 
BRANCH  30  31
ATOM     31  C   UNL     1     -48.304  -6.577 -21.374  1.00  0.00    +0.021 C 
BRANCH  31  32
ATOM     32  C   UNL     1     -48.881  -5.570 -20.378  1.00  0.00    +0.113 C 
BRANCH  32  33
ATOM     33  N   UNL     1     -50.223  -5.123 -20.738  1.00  0.00    -0.385 N 
ATOM     34  H   UNL     1     -50.856  -5.074 -19.946  1.00  0.00    +0.160 HD
BRANCH  33  35
ATOM     35  C   UNL     1     -50.473  -4.177 -21.722  1.00  0.00    +0.040 A 
ATOM     36  C   UNL     1     -50.798  -4.492 -23.054  1.00  0.00    +0.026 A 
ATOM     37  C   UNL     1     -50.554  -2.830 -21.384  1.00  0.00    +0.007 A 
ATOM     38  C   UNL     1     -51.120  -3.502 -24.008  1.00  0.00    +0.003 A 
ATOM     39  C   UNL     1     -50.884  -1.858 -22.332  1.00  0.00    +0.047 A 
ATOM     40  C   UNL     1     -50.333  -2.169 -20.063  1.00  0.00    +0.159 C 
ATOM     41  C   UNL     1     -51.159  -2.158 -23.650  1.00  0.00    +0.014 A 
ATOM     42  C   UNL     1     -50.901  -0.550 -21.671  1.00  0.00    +0.255 C 
ATOM     43  N   UNL     1     -50.667  -0.778 -20.325  1.00  0.00    -0.322 N 
ATOM     44  O   UNL     1     -51.081   0.512 -22.235  1.00  0.00    -0.269 OA
BRANCH  43  45
ATOM     45  C   UNL     1     -50.424   0.266 -19.337  1.00  0.00    +0.176 C 
ATOM     46  C   UNL     1     -49.509  -0.174 -18.196  1.00  0.00    +0.045 C 
ATOM     47  C   UNL     1     -51.747   0.827 -18.794  1.00  0.00    +0.249 C 
ATOM     48  C   UNL     1     -49.291   0.995 -17.249  1.00  0.00    +0.103 C 
ATOM     49  N   UNL     1     -51.706   1.338 -17.517  1.00  0.00    -0.295 N 
ATOM     50  O   UNL     1     -52.768   0.929 -19.471  1.00  0.00    -0.272 OA
ATOM     51  C   UNL     1     -50.604   1.525 -16.723  1.00  0.00    +0.226 C 
ATOM     52  O   UNL     1     -50.677   2.166 -15.677  1.00  0.00    -0.275 OA
ATOM     53  H   UNL     1     -52.572   1.733 -17.174  1.00  0.00    +0.172 HD
ENDBRANCH  43  45
ENDBRANCH  33  35
ENDBRANCH  32  33
ENDBRANCH  31  32
ENDBRANCH  30  31
ENDBRANCH   1  30
TORSDOF 12
ENDMDL
