REMARK SMILES CS(=O)(=O)c1ccc(Nc2nccc(-c3ccc(C(F)(F)F)cc3CCn3cc(CCNc4cccc5c4C(=O)N([C@@H]4CCC(=O)NC4=O)C5=O)nn3)n2)cc1
REMARK SMILES IDX 26 1 25 2 24 3 15 4 16 5 17 6 23 7 18 8 14 9 10 10 11 11
REMARK SMILES IDX 54 12 12 13 13 14 9 15 8 17 5 18 6 19 56 20 7 21 55 22 2 23
REMARK SMILES IDX 3 24 4 25 1 26 19 27 20 28 21 29 22 30 27 31 28 32 53 33
REMARK SMILES IDX 29 34 52 35 30 36 31 37 32 38 33 40 34 41 38 42 35 43 37 44
REMARK SMILES IDX 39 45 36 46 50 47 40 48 41 49 51 50 42 51 43 52 48 53 44 54
REMARK SMILES IDX 47 55 49 56 45 57 46 58
REMARK H PARENT 9 16 32 39 47 59
ROOT
ATOM      1  C   UNL     1      -1.052  -0.050  -2.667  1.00  0.00    +0.151 C 
ENDROOT
BRANCH   1   2
ATOM      2  C   UNL     1       0.467   0.043  -2.862  1.00  0.00    +0.060 C 
BRANCH   2   3
ATOM      3  C   UNL     1       1.301  -0.610  -1.769  1.00  0.00    -0.036 A 
ATOM      4  C   UNL     1       1.853   0.096  -0.672  1.00  0.00    +0.004 A 
ATOM      5  C   UNL     1       2.629  -0.628   0.258  1.00  0.00    +0.011 A 
ATOM      6  C   UNL     1       2.840  -2.005   0.138  1.00  0.00    +0.014 A 
ATOM      7  C   UNL     1       1.545  -1.998  -1.890  1.00  0.00    +0.017 A 
ATOM      8  C   UNL     1       2.301  -2.705  -0.943  1.00  0.00    +0.056 A 
BRANCH   4   9
ATOM      9  C   UNL     1       1.691   1.544  -0.446  1.00  0.00    +0.076 A 
ATOM     10  C   UNL     1       2.762   3.577  -0.211  1.00  0.00    +0.227 A 
ATOM     11  N   UNL     1       1.603   4.223  -0.014  1.00  0.00    -0.221 NA
ATOM     12  N   UNL     1       2.837   2.259  -0.439  1.00  0.00    -0.213 NA
ATOM     13  C   UNL     1       0.482   3.481   0.006  1.00  0.00    +0.117 A 
ATOM     14  C   UNL     1       0.472   2.123  -0.183  1.00  0.00    +0.049 A 
BRANCH  10  15
ATOM     15  N   UNL     1       3.897   4.379  -0.088  1.00  0.00    -0.324 N 
ATOM     16  H   UNL     1       3.587   5.295   0.203  1.00  0.00    +0.170 HD
BRANCH  15  17
ATOM     17  C   UNL     1       5.245   4.073   0.150  1.00  0.00    +0.041 A 
ATOM     18  C   UNL     1       7.956   3.576   0.739  1.00  0.00    +0.067 A 
ATOM     19  C   UNL     1       7.164   2.565   0.193  1.00  0.00    +0.022 A 
ATOM     20  C   UNL     1       7.428   4.849   0.944  1.00  0.00    +0.022 A 
ATOM     21  C   UNL     1       5.815   2.817  -0.093  1.00  0.00    +0.027 A 
ATOM     22  C   UNL     1       6.084   5.090   0.639  1.00  0.00    +0.027 A 
BRANCH  18  23
ATOM     23  S   UNL     1       9.644   3.221   1.158  1.00  0.00    +0.175 S 
ATOM     24  O   UNL     1      10.161   2.320   0.143  1.00  0.00    -0.224 OA
ATOM     25  O   UNL     1      10.313   4.480   1.448  1.00  0.00    -0.224 OA
ATOM     26  C   UNL     1       9.498   2.323   2.686  1.00  0.00    +0.163 C 
ENDBRANCH  18  23
ENDBRANCH  15  17
ENDBRANCH  10  15
ENDBRANCH   4   9
BRANCH   8  27
ATOM     27  C   UNL     1       2.495  -4.197  -1.060  1.00  0.00    +0.416 C 
ATOM     28  F   UNL     1       1.618  -4.885  -0.276  1.00  0.00    -0.166 F 
ATOM     29  F   UNL     1       3.737  -4.602  -0.675  1.00  0.00    -0.166 F 
ATOM     30  F   UNL     1       2.324  -4.674  -2.322  1.00  0.00    -0.166 F 
ENDBRANCH   8  27
ENDBRANCH   2   3
ENDBRANCH   1   2
BRANCH   1  31
ATOM     31  N   UNL     1      -1.560  -1.403  -2.654  1.00  0.00    -0.252 N 
ATOM     32  C   UNL     1      -1.833  -2.176  -1.567  1.00  0.00    +0.134 A 
ATOM     33  N   UNL     1      -1.798  -2.062  -3.800  1.00  0.00    -0.067 NA
ATOM     34  C   UNL     1      -2.256  -3.369  -2.108  1.00  0.00    +0.084 A 
ATOM     35  N   UNL     1      -2.227  -3.275  -3.476  1.00  0.00    -0.135 NA
BRANCH  34  36
ATOM     36  C   UNL     1      -2.665  -4.622  -1.423  1.00  0.00    +0.081 C 
BRANCH  36  37
ATOM     37  C   UNL     1      -4.178  -4.756  -1.219  1.00  0.00    +0.119 C 
BRANCH  37  38
ATOM     38  N   UNL     1      -4.780  -3.648  -0.463  1.00  0.00    -0.384 N 
ATOM     39  H   UNL     1      -4.857  -2.801  -1.039  1.00  0.00    +0.160 HD
BRANCH  38  40
ATOM     40  C   UNL     1      -4.376  -3.362   0.839  1.00  0.00    +0.048 A 
ATOM     41  C   UNL     1      -4.036  -4.347   1.778  1.00  0.00    +0.026 A 
ATOM     42  C   UNL     1      -4.377  -2.059   1.325  1.00  0.00    +0.076 A 
ATOM     43  C   UNL     1      -3.671  -4.020   3.105  1.00  0.00    +0.003 A 
ATOM     44  C   UNL     1      -4.019  -1.737   2.623  1.00  0.00    +0.055 A 
ATOM     45  C   UNL     1      -4.690  -0.800   0.646  1.00  0.00    +0.264 C 
ATOM     46  C   UNL     1      -3.658  -2.696   3.545  1.00  0.00    +0.015 A 
ATOM     47  C   UNL     1      -4.123  -0.288   2.766  1.00  0.00    +0.262 C 
ATOM     48  O   UNL     1      -5.028  -0.700  -0.520  1.00  0.00    -0.268 OA
ATOM     49  N   UNL     1      -4.496   0.206   1.548  1.00  0.00    -0.262 N 
ATOM     50  O   UNL     1      -3.930   0.316   3.803  1.00  0.00    -0.269 OA
BRANCH  49  51
ATOM     51  C   UNL     1      -4.804   1.611   1.314  1.00  0.00    +0.184 C 
ATOM     52  C   UNL     1      -6.295   1.947   1.362  1.00  0.00    +0.046 C 
ATOM     53  C   UNL     1      -4.120   2.105   0.036  1.00  0.00    +0.249 C 
ATOM     54  C   UNL     1      -7.003   1.675   0.049  1.00  0.00    +0.103 C 
ATOM     55  N   UNL     1      -4.944   2.555  -0.970  1.00  0.00    -0.295 N 
ATOM     56  O   UNL     1      -2.898   2.053  -0.124  1.00  0.00    -0.272 OA
ATOM     57  C   UNL     1      -6.283   2.302  -1.120  1.00  0.00    +0.226 C 
ATOM     58  O   UNL     1      -6.846   2.535  -2.186  1.00  0.00    -0.275 OA
ATOM     59  H   UNL     1      -4.485   2.850  -1.820  1.00  0.00    +0.172 HD
ENDBRANCH  49  51
ENDBRANCH  38  40
ENDBRANCH  37  38
ENDBRANCH  36  37
ENDBRANCH  34  36
ENDBRANCH   1  31
TORSDOF 13
