MODEL 1
REMARK VINA RESULT:    -8.234      0.000      0.000
REMARK INTER + INTRA:         -21.246
REMARK INTER:                 -15.935
REMARK INTRA:                  -5.311
REMARK UNBOUND:                -5.311
REMARK SMILES CS(=O)(=O)c1ccc(Nc2nccc(-c3ccc(C(F)(F)F)cc3CCOCCOCCNc3cccc4c3CN([C@H]3CCC(=O)NC3=O)C4=O)n2)cc1
REMARK SMILES IDX 27 1 26 2 25 3 24 4 15 5 16 6 17 7 23 8 18 9 14 10 10 11
REMARK SMILES IDX 11 12 52 13 12 14 13 15 9 16 8 18 5 19 6 20 54 21 7 22 53 23
REMARK SMILES IDX 2 24 3 25 4 26 1 27 19 28 20 29 21 30 22 31 28 32 29 33
REMARK SMILES IDX 30 34 31 35 32 36 33 37 34 39 35 40 39 41 36 42 38 43 40 44
REMARK SMILES IDX 37 45 50 46 41 47 51 48 42 49 43 50 48 51 44 52 47 53 49 54
REMARK SMILES IDX 45 55 46 56
REMARK H PARENT 9 17 33 38 47 57
ROOT
ATOM      1  O   UNL     1     -46.124  -0.659 -19.898  1.00  0.00    -0.379 OA
ENDROOT
BRANCH   1   2
ATOM      2  C   UNL     1     -47.499  -0.452 -19.572  1.00  0.00    +0.165 C 
BRANCH   2   3
ATOM      3  C   UNL     1     -48.162   0.425 -20.640  1.00  0.00    +0.064 C 
BRANCH   3   4
ATOM      4  C   UNL     1     -48.795  -0.364 -21.769  1.00  0.00    -0.036 A 
ATOM      5  C   UNL     1     -50.173  -0.294 -22.081  1.00  0.00    +0.004 A 
ATOM      6  C   UNL     1     -50.672  -1.122 -23.106  1.00  0.00    +0.011 A 
ATOM      7  C   UNL     1     -49.839  -1.976 -23.832  1.00  0.00    +0.014 A 
ATOM      8  C   UNL     1     -47.964  -1.232 -22.510  1.00  0.00    +0.017 A 
ATOM      9  C   UNL     1     -48.471  -2.030 -23.549  1.00  0.00    +0.056 A 
BRANCH   5  10
ATOM     10  C   UNL     1     -51.114   0.595 -21.388  1.00  0.00    +0.076 A 
ATOM     11  C   UNL     1     -52.034   1.205 -19.362  1.00  0.00    +0.227 A 
ATOM     12  N   UNL     1     -52.826   2.117 -19.947  1.00  0.00    -0.221 NA
ATOM     13  N   UNL     1     -51.171   0.445 -20.048  1.00  0.00    -0.213 NA
ATOM     14  C   UNL     1     -52.755   2.234 -21.285  1.00  0.00    +0.117 A 
ATOM     15  C   UNL     1     -51.910   1.491 -22.066  1.00  0.00    +0.049 A 
BRANCH  11  16
ATOM     16  N   UNL     1     -52.170   1.104 -17.980  1.00  0.00    -0.324 N 
ATOM     17  H   UNL     1     -52.644   0.237 -17.767  1.00  0.00    +0.170 HD
BRANCH  16  18
ATOM     18  C   UNL     1     -51.629   1.811 -16.900  1.00  0.00    +0.041 A 
ATOM     19  C   UNL     1     -50.522   3.091 -14.648  1.00  0.00    +0.067 A 
ATOM     20  C   UNL     1     -51.430   3.771 -15.458  1.00  0.00    +0.022 A 
ATOM     21  C   UNL     1     -50.145   1.785 -14.954  1.00  0.00    +0.022 A 
ATOM     22  C   UNL     1     -51.985   3.124 -16.569  1.00  0.00    +0.027 A 
ATOM     23  C   UNL     1     -50.705   1.153 -16.067  1.00  0.00    +0.027 A 
BRANCH  19  24
ATOM     24  S   UNL     1     -49.813   3.904 -13.239  1.00  0.00    +0.175 S 
ATOM     25  O   UNL     1     -48.525   3.286 -12.980  1.00  0.00    -0.224 OA
ATOM     26  O   UNL     1     -49.918   5.333 -13.456  1.00  0.00    -0.224 OA
ATOM     27  C   UNL     1     -50.915   3.464 -11.920  1.00  0.00    +0.163 C 
ENDBRANCH  19  24
ENDBRANCH  16  18
ENDBRANCH  11  16
ENDBRANCH   5  10
BRANCH   9  28
ATOM     28  C   UNL     1     -47.546  -2.940 -24.319  1.00  0.00    +0.416 C 
ATOM     29  F   UNL     1     -46.813  -2.273 -25.253  1.00  0.00    -0.166 F 
ATOM     30  F   UNL     1     -48.200  -3.924 -24.998  1.00  0.00    -0.166 F 
ATOM     31  F   UNL     1     -46.647  -3.569 -23.517  1.00  0.00    -0.166 F 
ENDBRANCH   9  28
ENDBRANCH   3   4
ENDBRANCH   2   3
ENDBRANCH   1   2
BRANCH   1  32
ATOM     32  C   UNL     1     -45.669  -2.011 -19.820  1.00  0.00    +0.188 C 
BRANCH  32  33
ATOM     33  C   UNL     1     -44.877  -2.346 -18.554  1.00  0.00    +0.188 C 
BRANCH  33  34
ATOM     34  O   UNL     1     -44.669  -3.754 -18.473  1.00  0.00    -0.377 OA
BRANCH  34  35
ATOM     35  C   UNL     1     -44.804  -4.403 -19.737  1.00  0.00    +0.181 C 
BRANCH  35  36
ATOM     36  C   UNL     1     -45.323  -5.839 -19.557  1.00  0.00    +0.141 C 
BRANCH  36  37
ATOM     37  N   UNL     1     -46.701  -5.906 -19.073  1.00  0.00    -0.382 N 
ATOM     38  H   UNL     1     -46.786  -6.054 -18.072  1.00  0.00    +0.160 HD
BRANCH  37  39
ATOM     39  C   UNL     1     -47.759  -5.212 -19.641  1.00  0.00    +0.040 A 
ATOM     40  C   UNL     1     -48.321  -5.511 -20.894  1.00  0.00    +0.026 A 
ATOM     41  C   UNL     1     -48.421  -4.235 -18.902  1.00  0.00    +0.007 A 
ATOM     42  C   UNL     1     -49.446  -4.827 -21.404  1.00  0.00    +0.003 A 
ATOM     43  C   UNL     1     -49.541  -3.571 -19.411  1.00  0.00    +0.047 A 
ATOM     44  C   UNL     1     -48.166  -3.763 -17.508  1.00  0.00    +0.159 C 
ATOM     45  C   UNL     1     -50.073  -3.839 -20.654  1.00  0.00    +0.014 A 
ATOM     46  C   UNL     1     -50.024  -2.630 -18.393  1.00  0.00    +0.255 C 
ATOM     47  N   UNL     1     -49.142  -2.697 -17.328  1.00  0.00    -0.322 N 
ATOM     48  O   UNL     1     -51.029  -1.953 -18.498  1.00  0.00    -0.269 OA
BRANCH  47  49
ATOM     49  C   UNL     1     -49.386  -2.104 -16.017  1.00  0.00    +0.176 C 
ATOM     50  C   UNL     1     -50.013  -3.073 -15.014  1.00  0.00    +0.045 C 
ATOM     51  C   UNL     1     -48.107  -1.480 -15.434  1.00  0.00    +0.249 C 
ATOM     52  C   UNL     1     -50.289  -2.343 -13.710  1.00  0.00    +0.103 C 
ATOM     53  N   UNL     1     -48.053  -1.389 -14.062  1.00  0.00    -0.295 N 
ATOM     54  O   UNL     1     -47.217  -0.980 -16.121  1.00  0.00    -0.272 OA
ATOM     55  C   UNL     1     -49.032  -1.711 -13.156  1.00  0.00    +0.226 C 
ATOM     56  O   UNL     1     -48.914  -1.424 -11.968  1.00  0.00    -0.275 OA
ATOM     57  H   UNL     1     -47.229  -0.942 -13.683  1.00  0.00    +0.172 HD
ENDBRANCH  47  49
ENDBRANCH  37  39
ENDBRANCH  36  37
ENDBRANCH  35  36
ENDBRANCH  34  35
ENDBRANCH  33  34
ENDBRANCH  32  33
ENDBRANCH   1  32
TORSDOF 16
ENDMDL
