MODEL 1
REMARK VINA RESULT:    -8.850      0.000      0.000
REMARK INTER + INTRA:         -21.058
REMARK INTER:                 -15.576
REMARK INTRA:                  -5.482
REMARK UNBOUND:                -5.482
REMARK SMILES CS(=O)(=O)c1ccc(Nc2nccc(-c3ccc(C(F)(F)F)cc3CCOCCNc3cccc4c3C(=O)N([C@H]3CCC(=O)NC3=O)C4=O)n2)cc1
REMARK SMILES IDX 26 1 25 2 24 3 15 4 16 5 17 6 23 7 18 8 14 9 10 10 11 11
REMARK SMILES IDX 50 12 12 13 13 14 9 15 8 17 5 18 6 19 52 20 7 21 51 22 2 23
REMARK SMILES IDX 3 24 4 25 1 26 19 27 20 28 21 29 22 30 27 31 28 32 29 33
REMARK SMILES IDX 30 34 31 36 32 37 36 38 33 39 35 40 37 41 34 42 48 43 38 44
REMARK SMILES IDX 39 45 49 46 40 47 41 48 46 49 42 50 45 51 47 52 43 53 44 54
REMARK H PARENT 9 16 30 35 45 55
ROOT
ATOM      1  C   UNL     1     -47.019  -6.509 -21.113  1.00  0.00    +0.165 C 
ENDROOT
BRANCH   1   2
ATOM      2  C   UNL     1     -45.962  -5.610 -21.778  1.00  0.00    +0.064 C 
BRANCH   2   3
ATOM      3  C   UNL     1     -46.519  -4.489 -22.645  1.00  0.00    -0.036 A 
ATOM      4  C   UNL     1     -46.777  -3.180 -22.159  1.00  0.00    +0.004 A 
ATOM      5  C   UNL     1     -47.264  -2.216 -23.068  1.00  0.00    +0.011 A 
ATOM      6  C   UNL     1     -47.487  -2.521 -24.415  1.00  0.00    +0.014 A 
ATOM      7  C   UNL     1     -46.748  -4.778 -24.009  1.00  0.00    +0.017 A 
ATOM      8  C   UNL     1     -47.238  -3.809 -24.898  1.00  0.00    +0.056 A 
BRANCH   4   9
ATOM      9  C   UNL     1     -46.570  -2.794 -20.751  1.00  0.00    +0.076 A 
ATOM     10  C   UNL     1     -47.597  -2.396 -18.722  1.00  0.00    +0.227 A 
ATOM     11  N   UNL     1     -46.426  -2.209 -18.103  1.00  0.00    -0.221 NA
ATOM     12  N   UNL     1     -47.696  -2.644 -20.033  1.00  0.00    -0.213 NA
ATOM     13  C   UNL     1     -45.314  -2.314 -18.853  1.00  0.00    +0.117 A 
ATOM     14  C   UNL     1     -45.325  -2.620 -20.191  1.00  0.00    +0.049 A 
BRANCH  10  15
ATOM     15  N   UNL     1     -48.817  -2.447 -18.049  1.00  0.00    -0.324 N 
ATOM     16  H   UNL     1     -49.370  -3.173 -18.492  1.00  0.00    +0.170 HD
BRANCH  15  17
ATOM     17  C   UNL     1     -49.211  -2.035 -16.773  1.00  0.00    +0.041 A 
ATOM     18  C   UNL     1     -49.991  -1.089 -14.240  1.00  0.00    +0.067 A 
ATOM     19  C   UNL     1     -49.916  -2.462 -14.474  1.00  0.00    +0.022 A 
ATOM     20  C   UNL     1     -49.652  -0.179 -15.240  1.00  0.00    +0.022 A 
ATOM     21  C   UNL     1     -49.530  -2.924 -15.738  1.00  0.00    +0.027 A 
ATOM     22  C   UNL     1     -49.260  -0.657 -16.496  1.00  0.00    +0.027 A 
BRANCH  18  23
ATOM     23  S   UNL     1     -50.494  -0.507 -12.639  1.00  0.00    +0.175 S 
ATOM     24  O   UNL     1     -49.319   0.051 -11.994  1.00  0.00    -0.224 OA
ATOM     25  O   UNL     1     -51.701   0.287 -12.808  1.00  0.00    -0.224 OA
ATOM     26  C   UNL     1     -50.943  -1.998 -11.786  1.00  0.00    +0.163 C 
ENDBRANCH  18  23
ENDBRANCH  15  17
ENDBRANCH  10  15
ENDBRANCH   4   9
BRANCH   8  27
ATOM     27  C   UNL     1     -47.442  -4.135 -26.359  1.00  0.00    +0.416 C 
ATOM     28  F   UNL     1     -46.736  -3.304 -27.175  1.00  0.00    -0.166 F 
ATOM     29  F   UNL     1     -48.744  -4.034 -26.753  1.00  0.00    -0.166 F 
ATOM     30  F   UNL     1     -47.053  -5.397 -26.681  1.00  0.00    -0.166 F 
ENDBRANCH   8  27
ENDBRANCH   2   3
ENDBRANCH   1   2
BRANCH   1  31
ATOM     31  O   UNL     1     -47.249  -6.172 -19.741  1.00  0.00    -0.379 OA
BRANCH  31  32
ATOM     32  C   UNL     1     -48.629  -5.911 -19.451  1.00  0.00    +0.181 C 
BRANCH  32  33
ATOM     33  C   UNL     1     -49.458  -5.893 -20.740  1.00  0.00    +0.141 C 
BRANCH  33  34
ATOM     34  N   UNL     1     -50.184  -4.641 -20.924  1.00  0.00    -0.382 N 
ATOM     35  H   UNL     1     -50.895  -4.466 -20.204  1.00  0.00    +0.160 HD
BRANCH  34  36
ATOM     36  C   UNL     1     -50.542  -4.159 -22.175  1.00  0.00    +0.048 A 
ATOM     37  C   UNL     1     -50.587  -4.950 -23.334  1.00  0.00    +0.026 A 
ATOM     38  C   UNL     1     -50.771  -2.802 -22.380  1.00  0.00    +0.076 A 
ATOM     39  C   UNL     1     -50.871  -4.404 -24.607  1.00  0.00    +0.003 A 
ATOM     40  C   UNL     1     -51.042  -2.263 -23.626  1.00  0.00    +0.055 A 
ATOM     41  C   UNL     1     -50.796  -1.697 -21.421  1.00  0.00    +0.264 C 
ATOM     42  C   UNL     1     -51.103  -3.038 -24.765  1.00  0.00    +0.015 A 
ATOM     43  C   UNL     1     -51.218  -0.824 -23.459  1.00  0.00    +0.262 C 
ATOM     44  O   UNL     1     -50.606  -1.820 -20.224  1.00  0.00    -0.268 OA
ATOM     45  N   UNL     1     -51.063  -0.558 -22.126  1.00  0.00    -0.262 N 
ATOM     46  O   UNL     1     -51.480  -0.057 -24.368  1.00  0.00    -0.269 OA
BRANCH  45  47
ATOM     47  C   UNL     1     -51.096   0.787 -21.570  1.00  0.00    +0.184 C 
ATOM     48  C   UNL     1     -52.456   1.243 -21.046  1.00  0.00    +0.046 C 
ATOM     49  C   UNL     1     -49.957   0.925 -20.560  1.00  0.00    +0.249 C 
ATOM     50  C   UNL     1     -52.676   0.979 -19.568  1.00  0.00    +0.103 C 
ATOM     51  N   UNL     1     -50.277   1.448 -19.335  1.00  0.00    -0.295 N 
ATOM     52  O   UNL     1     -48.803   0.570 -20.803  1.00  0.00    -0.272 OA
ATOM     53  C   UNL     1     -51.503   1.415 -18.727  1.00  0.00    +0.226 C 
ATOM     54  O   UNL     1     -51.616   1.681 -17.532  1.00  0.00    -0.275 OA
ATOM     55  H   UNL     1     -49.502   1.557 -18.696  1.00  0.00    +0.172 HD
ENDBRANCH  45  47
ENDBRANCH  34  36
ENDBRANCH  33  34
ENDBRANCH  32  33
ENDBRANCH  31  32
ENDBRANCH   1  31
TORSDOF 13
ENDMDL
