MODEL 1
REMARK VINA RESULT:    -7.958      0.000      0.000
REMARK INTER + INTRA:         -22.425
REMARK INTER:                 -16.798
REMARK INTRA:                  -5.626
REMARK UNBOUND:                -5.626
REMARK SMILES CS(=O)(=O)c1ccc(Nc2nccc(-c3ccc(C(F)(F)F)cc3CCOCCOCCOCCNc3cccc4c3C(=O)N([C@@H]3CCC(=O)NC3=O)C4=O)n2)cc1
REMARK SMILES IDX 29 1 28 2 27 3 26 4 25 5 24 6 15 7 16 8 17 9 23 10 18 11
REMARK SMILES IDX 14 12 10 13 11 14 56 15 12 16 13 17 9 18 8 20 5 21 6 22
REMARK SMILES IDX 58 23 7 24 57 25 2 26 3 27 4 28 1 29 19 30 20 31 21 32 22 33
REMARK SMILES IDX 30 34 31 35 32 36 33 37 34 38 35 39 36 40 37 42 38 43 42 44
REMARK SMILES IDX 39 45 41 46 43 47 40 48 54 49 44 50 45 51 55 52 46 53 47 54
REMARK SMILES IDX 52 55 48 56 51 57 53 58 49 59 50 60
REMARK H PARENT 9 19 36 41 51 61
ROOT
ATOM      1  C   UNL     1     -45.520  -6.533 -18.222  1.00  0.00    +0.188 C 
ENDROOT
BRANCH   1   2
ATOM      2  C   UNL     1     -45.170  -5.658 -19.431  1.00  0.00    +0.188 C 
BRANCH   2   3
ATOM      3  O   UNL     1     -44.509  -6.367 -20.482  1.00  0.00    -0.379 OA
BRANCH   3   4
ATOM      4  C   UNL     1     -44.957  -6.029 -21.792  1.00  0.00    +0.165 C 
BRANCH   4   5
ATOM      5  C   UNL     1     -46.419  -5.568 -21.729  1.00  0.00    +0.064 C 
BRANCH   5   6
ATOM      6  C   UNL     1     -46.747  -4.417 -22.670  1.00  0.00    -0.036 A 
ATOM      7  C   UNL     1     -46.881  -3.080 -22.223  1.00  0.00    +0.004 A 
ATOM      8  C   UNL     1     -47.251  -2.093 -23.159  1.00  0.00    +0.011 A 
ATOM      9  C   UNL     1     -47.462  -2.401 -24.504  1.00  0.00    +0.014 A 
ATOM     10  C   UNL     1     -46.935  -4.706 -24.037  1.00  0.00    +0.017 A 
ATOM     11  C   UNL     1     -47.305  -3.713 -24.958  1.00  0.00    +0.056 A 
BRANCH   7  12
ATOM     12  C   UNL     1     -46.640  -2.660 -20.835  1.00  0.00    +0.076 A 
ATOM     13  C   UNL     1     -47.552  -2.271 -18.754  1.00  0.00    +0.227 A 
ATOM     14  N   UNL     1     -46.371  -1.871 -18.259  1.00  0.00    -0.221 NA
ATOM     15  N   UNL     1     -47.720  -2.656 -20.027  1.00  0.00    -0.213 NA
ATOM     16  C   UNL     1     -45.319  -1.863 -19.095  1.00  0.00    +0.117 A 
ATOM     17  C   UNL     1     -45.395  -2.251 -20.407  1.00  0.00    +0.049 A 
BRANCH  13  18
ATOM     18  N   UNL     1     -48.703  -2.321 -17.974  1.00  0.00    -0.324 N 
ATOM     19  H   UNL     1     -49.429  -2.773 -18.511  1.00  0.00    +0.170 HD
BRANCH  18  20
ATOM     20  C   UNL     1     -49.025  -1.895 -16.683  1.00  0.00    +0.041 A 
ATOM     21  C   UNL     1     -49.688  -1.176 -14.044  1.00  0.00    +0.067 A 
ATOM     22  C   UNL     1     -49.139  -0.228 -14.904  1.00  0.00    +0.022 A 
ATOM     23  C   UNL     1     -49.933  -2.475 -14.486  1.00  0.00    +0.022 A 
ATOM     24  C   UNL     1     -48.805  -0.595 -16.212  1.00  0.00    +0.027 A 
ATOM     25  C   UNL     1     -49.596  -2.825 -15.797  1.00  0.00    +0.027 A 
BRANCH  21  26
ATOM     26  S   UNL     1     -50.121  -0.722 -12.383  1.00  0.00    +0.175 S 
ATOM     27  O   UNL     1     -51.509  -0.299 -12.392  1.00  0.00    -0.224 OA
ATOM     28  O   UNL     1     -49.081   0.155 -11.876  1.00  0.00    -0.224 OA
ATOM     29  C   UNL     1     -50.018  -2.258 -11.504  1.00  0.00    +0.163 C 
ENDBRANCH  21  26
ENDBRANCH  18  20
ENDBRANCH  13  18
ENDBRANCH   7  12
BRANCH  11  30
ATOM     30  C   UNL     1     -47.509  -4.046 -26.414  1.00  0.00    +0.416 C 
ATOM     31  F   UNL     1     -48.799  -3.895 -26.825  1.00  0.00    -0.166 F 
ATOM     32  F   UNL     1     -46.760  -3.255 -27.234  1.00  0.00    -0.166 F 
ATOM     33  F   UNL     1     -47.167  -5.330 -26.726  1.00  0.00    -0.166 F 
ENDBRANCH  11  30
ENDBRANCH   5   6
ENDBRANCH   4   5
ENDBRANCH   3   4
ENDBRANCH   2   3
ENDBRANCH   1   2
BRANCH   1  34
ATOM     34  O   UNL     1     -45.660  -7.895 -18.632  1.00  0.00    -0.377 OA
BRANCH  34  35
ATOM     35  C   UNL     1     -47.016  -8.326 -18.730  1.00  0.00    +0.188 C 
BRANCH  35  36
ATOM     36  C   UNL     1     -48.009  -7.284 -18.217  1.00  0.00    +0.188 C 
BRANCH  36  37
ATOM     37  O   UNL     1     -48.999  -7.042 -19.218  1.00  0.00    -0.377 OA
BRANCH  37  38
ATOM     38  C   UNL     1     -49.165  -5.649 -19.506  1.00  0.00    +0.181 C 
BRANCH  38  39
ATOM     39  C   UNL     1     -49.784  -5.440 -20.896  1.00  0.00    +0.141 C 
BRANCH  39  40
ATOM     40  N   UNL     1     -50.470  -4.153 -20.972  1.00  0.00    -0.382 N 
ATOM     41  H   UNL     1     -50.133  -3.475 -20.277  1.00  0.00    +0.160 HD
BRANCH  40  42
ATOM     42  C   UNL     1     -50.642  -3.543 -22.218  1.00  0.00    +0.048 A 
ATOM     43  C   UNL     1     -50.768  -4.258 -23.421  1.00  0.00    +0.026 A 
ATOM     44  C   UNL     1     -50.847  -2.172 -22.323  1.00  0.00    +0.076 A 
ATOM     45  C   UNL     1     -51.037  -3.617 -24.652  1.00  0.00    +0.003 A 
ATOM     46  C   UNL     1     -51.120  -1.542 -23.528  1.00  0.00    +0.055 A 
ATOM     47  C   UNL     1     -50.801  -1.126 -21.298  1.00  0.00    +0.264 C 
ATOM     48  C   UNL     1     -51.216  -2.236 -24.715  1.00  0.00    +0.015 A 
ATOM     49  C   UNL     1     -51.264  -0.115 -23.262  1.00  0.00    +0.262 C 
ATOM     50  O   UNL     1     -50.547  -1.329 -20.125  1.00  0.00    -0.268 OA
ATOM     51  N   UNL     1     -51.081   0.062 -21.920  1.00  0.00    -0.262 N 
ATOM     52  O   UNL     1     -51.474   0.722 -24.120  1.00  0.00    -0.269 OA
BRANCH  51  53
ATOM     53  C   UNL     1     -51.085   1.345 -21.231  1.00  0.00    +0.184 C 
ATOM     54  C   UNL     1     -49.880   1.603 -20.328  1.00  0.00    +0.046 C 
ATOM     55  C   UNL     1     -52.428   1.530 -20.528  1.00  0.00    +0.249 C 
ATOM     56  C   UNL     1     -50.052   1.080 -18.912  1.00  0.00    +0.103 C 
ATOM     57  N   UNL     1     -52.393   1.785 -19.180  1.00  0.00    -0.295 N 
ATOM     58  O   UNL     1     -53.505   1.413 -21.114  1.00  0.00    -0.272 OA
ATOM     59  C   UNL     1     -51.387   1.449 -18.314  1.00  0.00    +0.226 C 
ATOM     60  O   UNL     1     -51.593   1.403 -17.104  1.00  0.00    -0.275 OA
ATOM     61  H   UNL     1     -53.300   1.878 -18.740  1.00  0.00    +0.172 HD
ENDBRANCH  51  53
ENDBRANCH  40  42
ENDBRANCH  39  40
ENDBRANCH  38  39
ENDBRANCH  37  38
ENDBRANCH  36  37
ENDBRANCH  35  36
ENDBRANCH  34  35
ENDBRANCH   1  34
TORSDOF 19
ENDMDL
