REMARK SMILES CS(=O)(=O)c1ccc(Nc2nccc(-c3ccc(C(F)(F)F)cc3CCCCNc3cccc4c3C(=O)N([C@H]3CCC(=O)NC3=O)C4=O)n2)cc1
REMARK SMILES IDX 25 1 24 2 15 3 16 4 17 5 23 6 18 7 14 8 10 9 11 10 49 11
REMARK SMILES IDX 12 12 13 13 9 14 8 16 5 17 6 18 51 19 7 20 50 21 2 22 3 23
REMARK SMILES IDX 4 24 1 25 19 26 20 27 21 28 22 29 26 30 27 31 28 32 29 33
REMARK SMILES IDX 30 35 31 36 35 37 32 38 34 39 36 40 33 41 47 42 37 43 38 44
REMARK SMILES IDX 48 45 39 46 40 47 45 48 41 49 44 50 46 51 42 52 43 53
REMARK H PARENT 9 15 29 34 44 54
ROOT
ATOM      1  C   UNL     1      -0.469   2.968  -0.998  1.00  0.00    +0.036 C 
ENDROOT
BRANCH   1   2
ATOM      2  C   UNL     1       0.432   3.961  -1.707  1.00  0.00    -0.038 A 
ATOM      3  C   UNL     1       1.752   3.663  -2.124  1.00  0.00    +0.004 A 
ATOM      4  C   UNL     1       2.496   4.683  -2.755  1.00  0.00    +0.011 A 
ATOM      5  C   UNL     1       1.960   5.952  -2.983  1.00  0.00    +0.014 A 
ATOM      6  C   UNL     1      -0.099   5.246  -1.956  1.00  0.00    +0.017 A 
ATOM      7  C   UNL     1       0.651   6.244  -2.594  1.00  0.00    +0.056 A 
BRANCH   3   8
ATOM      8  C   UNL     1       2.387   2.345  -1.947  1.00  0.00    +0.076 A 
ATOM      9  C   UNL     1       3.106   0.715  -0.479  1.00  0.00    +0.227 A 
ATOM     10  N   UNL     1       3.538  -0.067  -1.478  1.00  0.00    -0.221 NA
ATOM     11  N   UNL     1       2.532   1.913  -0.677  1.00  0.00    -0.213 NA
ATOM     12  C   UNL     1       3.398   0.396  -2.731  1.00  0.00    +0.117 A 
ATOM     13  C   UNL     1       2.826   1.606  -3.027  1.00  0.00    +0.049 A 
BRANCH   9  14
ATOM     14  N   UNL     1       3.217   0.337   0.857  1.00  0.00    -0.324 N 
ATOM     15  H   UNL     1       2.868   1.092   1.430  1.00  0.00    +0.170 HD
BRANCH  14  16
ATOM     16  C   UNL     1       3.868  -0.709   1.519  1.00  0.00    +0.041 A 
ATOM     17  C   UNL     1       5.116  -2.772   2.976  1.00  0.00    +0.067 A 
ATOM     18  C   UNL     1       5.176  -2.770   1.584  1.00  0.00    +0.022 A 
ATOM     19  C   UNL     1       4.448  -1.755   3.655  1.00  0.00    +0.022 A 
ATOM     20  C   UNL     1       4.543  -1.747   0.867  1.00  0.00    +0.027 A 
ATOM     21  C   UNL     1       3.824  -0.739   2.925  1.00  0.00    +0.027 A 
BRANCH  17  22
ATOM     22  S   UNL     1       5.942  -4.050   3.890  1.00  0.00    +0.175 S 
ATOM     23  O   UNL     1       6.173  -3.552   5.233  1.00  0.00    -0.224 OA
ATOM     24  O   UNL     1       7.044  -4.527   3.075  1.00  0.00    -0.224 OA
ATOM     25  C   UNL     1       4.726  -5.339   3.982  1.00  0.00    +0.163 C 
ENDBRANCH  17  22
ENDBRANCH  14  16
ENDBRANCH   9  14
ENDBRANCH   3   8
BRANCH   7  26
ATOM     26  C   UNL     1       0.079   7.623  -2.819  1.00  0.00    +0.416 C 
ATOM     27  F   UNL     1       0.454   8.163  -4.013  1.00  0.00    -0.166 F 
ATOM     28  F   UNL     1       0.475   8.511  -1.866  1.00  0.00    -0.166 F 
ATOM     29  F   UNL     1      -1.283   7.649  -2.813  1.00  0.00    -0.166 F 
ENDBRANCH   7  26
ENDBRANCH   1   2
BRANCH   1  30
ATOM     30  C   UNL     1      -1.472   2.244  -1.907  1.00  0.00    +0.007 C 
BRANCH  30  31
ATOM     31  C   UNL     1      -0.795   1.259  -2.862  1.00  0.00    +0.021 C 
BRANCH  31  32
ATOM     32  C   UNL     1      -1.754   0.253  -3.503  1.00  0.00    +0.113 C 
BRANCH  32  33
ATOM     33  N   UNL     1      -2.405  -0.616  -2.531  1.00  0.00    -0.384 N 
ATOM     34  H   UNL     1      -3.240  -0.203  -2.101  1.00  0.00    +0.160 HD
BRANCH  33  35
ATOM     35  C   UNL     1      -1.690  -1.425  -1.654  1.00  0.00    +0.048 A 
ATOM     36  C   UNL     1      -0.438  -1.984  -1.960  1.00  0.00    +0.026 A 
ATOM     37  C   UNL     1      -2.216  -1.793  -0.421  1.00  0.00    +0.076 A 
ATOM     38  C   UNL     1       0.257  -2.812  -1.050  1.00  0.00    +0.003 A 
ATOM     39  C   UNL     1      -1.539  -2.610   0.470  1.00  0.00    +0.055 A 
ATOM     40  C   UNL     1      -3.479  -1.415   0.220  1.00  0.00    +0.264 C 
ATOM     41  C   UNL     1      -0.295  -3.134   0.189  1.00  0.00    +0.015 A 
ATOM     42  C   UNL     1      -2.370  -2.756   1.662  1.00  0.00    +0.262 C 
ATOM     43  O   UNL     1      -4.322  -0.700  -0.292  1.00  0.00    -0.268 OA
ATOM     44  N   UNL     1      -3.491  -2.000   1.458  1.00  0.00    -0.262 N 
ATOM     45  O   UNL     1      -2.065  -3.421   2.634  1.00  0.00    -0.269 OA
BRANCH  44  46
ATOM     46  C   UNL     1      -4.616  -1.994   2.380  1.00  0.00    +0.184 C 
ATOM     47  C   UNL     1      -5.228  -0.616   2.620  1.00  0.00    +0.046 C 
ATOM     48  C   UNL     1      -5.689  -2.964   1.879  1.00  0.00    +0.249 C 
ATOM     49  C   UNL     1      -6.358  -0.740   3.631  1.00  0.00    +0.103 C 
ATOM     50  N   UNL     1      -6.950  -2.780   2.401  1.00  0.00    -0.295 N 
ATOM     51  O   UNL     1      -5.465  -3.895   1.108  1.00  0.00    -0.272 OA
ATOM     52  C   UNL     1      -7.397  -1.737   3.175  1.00  0.00    +0.226 C 
ATOM     53  O   UNL     1      -8.576  -1.656   3.510  1.00  0.00    -0.275 OA
ATOM     54  H   UNL     1      -7.659  -3.426   2.082  1.00  0.00    +0.172 HD
ENDBRANCH  44  46
ENDBRANCH  33  35
ENDBRANCH  32  33
ENDBRANCH  31  32
ENDBRANCH  30  31
ENDBRANCH   1  30
TORSDOF 12
