MODEL 1
REMARK VINA RESULT:    -9.343      0.000      0.000
REMARK INTER + INTRA:         -21.058
REMARK INTER:                 -16.443
REMARK INTRA:                  -4.615
REMARK UNBOUND:                -4.615
REMARK SMILES CS(=O)(=O)c1ccc(Nc2nccc(-c3ccc(C(F)(F)F)cc3CCn3cc(CCNc4cccc5c4CN([C@H]4CCC(=O)NC4=O)C5=O)nn3)n2)cc1
REMARK SMILES IDX 26 1 25 2 24 3 15 4 16 5 17 6 23 7 18 8 14 9 10 10 11 11
REMARK SMILES IDX 53 12 12 13 13 14 9 15 8 17 5 18 6 19 55 20 7 21 54 22 2 23
REMARK SMILES IDX 3 24 4 25 1 26 19 27 20 28 21 29 22 30 27 31 28 32 52 33
REMARK SMILES IDX 29 34 51 35 30 36 31 37 32 38 33 40 34 41 38 42 35 43 37 44
REMARK SMILES IDX 39 45 36 46 49 47 40 48 50 49 41 50 42 51 47 52 43 53 46 54
REMARK SMILES IDX 48 55 44 56 45 57
REMARK H PARENT 9 16 32 39 46 58
ROOT
ATOM      1  C   UNL     1     -46.937   0.292 -20.581  1.00  0.00    +0.151 C 
ENDROOT
BRANCH   1   2
ATOM      2  C   UNL     1     -48.447   0.304 -20.866  1.00  0.00    +0.060 C 
BRANCH   2   3
ATOM      3  C   UNL     1     -49.007  -0.481 -22.047  1.00  0.00    -0.036 A 
ATOM      4  C   UNL     1     -50.379  -0.356 -22.421  1.00  0.00    +0.004 A 
ATOM      5  C   UNL     1     -50.835  -1.081 -23.543  1.00  0.00    +0.011 A 
ATOM      6  C   UNL     1     -50.004  -1.919 -24.279  1.00  0.00    +0.014 A 
ATOM      7  C   UNL     1     -48.187  -1.347 -22.801  1.00  0.00    +0.017 A 
ATOM      8  C   UNL     1     -48.669  -2.068 -23.909  1.00  0.00    +0.056 A 
BRANCH   4   9
ATOM      9  C   UNL     1     -51.360   0.500 -21.715  1.00  0.00    +0.076 A 
ATOM     10  C   UNL     1     -52.222   1.148 -19.672  1.00  0.00    +0.227 A 
ATOM     11  N   UNL     1     -53.133   1.947 -20.248  1.00  0.00    -0.221 NA
ATOM     12  N   UNL     1     -51.340   0.413 -20.363  1.00  0.00    -0.213 NA
ATOM     13  C   UNL     1     -53.093   2.057 -21.585  1.00  0.00    +0.117 A 
ATOM     14  C   UNL     1     -52.209   1.371 -22.375  1.00  0.00    +0.049 A 
BRANCH  10  15
ATOM     15  N   UNL     1     -52.255   1.151 -18.279  1.00  0.00    -0.324 N 
ATOM     16  H   UNL     1     -53.068   1.706 -18.024  1.00  0.00    +0.170 HD
BRANCH  15  17
ATOM     17  C   UNL     1     -51.224   1.143 -17.325  1.00  0.00    +0.041 A 
ATOM     18  C   UNL     1     -49.221   1.233 -15.337  1.00  0.00    +0.067 A 
ATOM     19  C   UNL     1     -50.442   1.873 -15.118  1.00  0.00    +0.022 A 
ATOM     20  C   UNL     1     -49.009   0.498 -16.503  1.00  0.00    +0.022 A 
ATOM     21  C   UNL     1     -51.439   1.813 -16.101  1.00  0.00    +0.027 A 
ATOM     22  C   UNL     1     -50.016   0.448 -17.480  1.00  0.00    +0.027 A 
BRANCH  18  23
ATOM     23  S   UNL     1     -47.939   1.367 -14.113  1.00  0.00    +0.175 S 
ATOM     24  O   UNL     1     -46.725   1.794 -14.784  1.00  0.00    -0.224 OA
ATOM     25  O   UNL     1     -47.974   0.153 -13.321  1.00  0.00    -0.224 OA
ATOM     26  C   UNL     1     -48.506   2.708 -13.101  1.00  0.00    +0.163 C 
ENDBRANCH  18  23
ENDBRANCH  15  17
ENDBRANCH  10  15
ENDBRANCH   4   9
BRANCH   8  27
ATOM     27  C   UNL     1     -47.760  -2.973 -24.707  1.00  0.00    +0.416 C 
ATOM     28  F   UNL     1     -46.809  -3.573 -23.938  1.00  0.00    -0.166 F 
ATOM     29  F   UNL     1     -48.426  -3.992 -25.324  1.00  0.00    -0.166 F 
ATOM     30  F   UNL     1     -47.086  -2.320 -25.697  1.00  0.00    -0.166 F 
ENDBRANCH   8  27
ENDBRANCH   2   3
ENDBRANCH   1   2
BRANCH   1  31
ATOM     31  N   UNL     1     -46.441  -0.922 -19.981  1.00  0.00    -0.252 N 
ATOM     32  C   UNL     1     -46.611  -1.360 -18.704  1.00  0.00    +0.134 A 
ATOM     33  N   UNL     1     -45.571  -1.698 -20.660  1.00  0.00    -0.067 NA
ATOM     34  C   UNL     1     -45.787  -2.463 -18.623  1.00  0.00    +0.084 A 
ATOM     35  N   UNL     1     -45.166  -2.648 -19.833  1.00  0.00    -0.135 NA
BRANCH  34  36
ATOM     36  C   UNL     1     -45.533  -3.383 -17.490  1.00  0.00    +0.081 C 
BRANCH  36  37
ATOM     37  C   UNL     1     -46.788  -3.799 -16.721  1.00  0.00    +0.119 C 
BRANCH  37  38
ATOM     38  N   UNL     1     -47.630  -4.720 -17.482  1.00  0.00    -0.384 N 
ATOM     39  H   UNL     1     -47.979  -5.487 -16.905  1.00  0.00    +0.160 HD
BRANCH  38  40
ATOM     40  C   UNL     1     -48.569  -4.320 -18.426  1.00  0.00    +0.040 A 
ATOM     41  C   UNL     1     -49.468  -3.250 -18.273  1.00  0.00    +0.026 A 
ATOM     42  C   UNL     1     -48.565  -4.922 -19.681  1.00  0.00    +0.007 A 
ATOM     43  C   UNL     1     -50.363  -2.854 -19.292  1.00  0.00    +0.003 A 
ATOM     44  C   UNL     1     -49.450  -4.527 -20.686  1.00  0.00    +0.047 A 
ATOM     45  C   UNL     1     -47.692  -6.019 -20.201  1.00  0.00    +0.159 C 
ATOM     46  C   UNL     1     -50.369  -3.514 -20.520  1.00  0.00    +0.014 A 
ATOM     47  C   UNL     1     -49.201  -5.345 -21.881  1.00  0.00    +0.255 C 
ATOM     48  N   UNL     1     -48.120  -6.166 -21.586  1.00  0.00    -0.322 N 
ATOM     49  O   UNL     1     -49.839  -5.284 -22.916  1.00  0.00    -0.269 OA
BRANCH  48  50
ATOM     50  C   UNL     1     -47.750  -7.298 -22.441  1.00  0.00    +0.176 C 
ATOM     51  C   UNL     1     -47.129  -6.888 -23.778  1.00  0.00    +0.045 C 
ATOM     52  C   UNL     1     -46.877  -8.297 -21.686  1.00  0.00    +0.249 C 
ATOM     53  C   UNL     1     -45.647  -6.581 -23.674  1.00  0.00    +0.103 C 
ATOM     54  N   UNL     1     -45.619  -8.523 -22.180  1.00  0.00    -0.295 N 
ATOM     55  O   UNL     1     -47.213  -8.809 -20.617  1.00  0.00    -0.272 OA
ATOM     56  C   UNL     1     -44.889  -7.596 -22.860  1.00  0.00    +0.226 C 
ATOM     57  O   UNL     1     -43.654  -7.541 -22.743  1.00  0.00    -0.275 OA
ATOM     58  H   UNL     1     -45.061  -9.096 -21.561  1.00  0.00    +0.172 HD
ENDBRANCH  48  50
ENDBRANCH  38  40
ENDBRANCH  37  38
ENDBRANCH  36  37
ENDBRANCH  34  36
ENDBRANCH   1  31
TORSDOF 13
ENDMDL
