REMARK SMILES CS(=O)(=O)c1ccc(Nc2nccc(-c3ccc(C(F)(F)F)cc3)n2)cc1
REMARK SMILES IDX 14 1 13 2 12 3 11 4 10 5 25 6 15 7 16 8 17 9 18 10 24 11
REMARK SMILES IDX 23 12 19 13 20 14 21 15 22 16 9 17 8 19 7 20 26 21 6 22
REMARK SMILES IDX 27 23 5 24 2 25 3 26 4 27 1 28
REMARK H PARENT 9 18
ROOT
ATOM      1  C   UNL     1      -2.242   1.016   0.612  1.00  0.00    +0.076 A 
ATOM      2  C   UNL     1      -1.944   2.190   1.272  1.00  0.00    +0.049 A 
ATOM      3  C   UNL     1      -0.614   2.512   1.355  1.00  0.00    +0.117 A 
ATOM      4  N   UNL     1       0.367   1.755   0.837  1.00  0.00    -0.221 NA
ATOM      5  C   UNL     1       0.006   0.633   0.202  1.00  0.00    +0.227 A 
ATOM      6  N   UNL     1      -1.272   0.242   0.072  1.00  0.00    -0.213 NA
ENDROOT
BRANCH   1   7
ATOM      7  C   UNL     1      -3.624   0.524   0.434  1.00  0.00    +0.000 A 
ATOM      8  C   UNL     1      -3.992  -0.176  -0.729  1.00  0.00    +0.011 A 
ATOM      9  C   UNL     1      -5.296  -0.648  -0.920  1.00  0.00    +0.014 A 
ATOM     10  C   UNL     1      -6.279  -0.432   0.053  1.00  0.00    +0.056 A 
ATOM     11  C   UNL     1      -4.618   0.719   1.410  1.00  0.00    +0.011 A 
ATOM     12  C   UNL     1      -5.924   0.248   1.224  1.00  0.00    +0.014 A 
BRANCH  10  13
ATOM     13  C   UNL     1      -7.680  -0.960  -0.137  1.00  0.00    +0.416 C 
ATOM     14  F   UNL     1      -7.832  -2.217   0.363  1.00  0.00    -0.166 F 
ATOM     15  F   UNL     1      -8.624  -0.196   0.480  1.00  0.00    -0.166 F 
ATOM     16  F   UNL     1      -8.055  -1.028  -1.445  1.00  0.00    -0.166 F 
ENDBRANCH  10  13
ENDBRANCH   1   7
BRANCH   5  17
ATOM     17  N   UNL     1       0.939  -0.229  -0.368  1.00  0.00    -0.324 N 
ATOM     18  H   UNL     1       0.447  -1.007  -0.782  1.00  0.00    +0.170 HD
BRANCH  17  19
ATOM     19  C   UNL     1       2.328  -0.196  -0.523  1.00  0.00    +0.041 A 
ATOM     20  C   UNL     1       2.961  -1.303  -1.118  1.00  0.00    +0.027 A 
ATOM     21  C   UNL     1       3.136   0.867  -0.102  1.00  0.00    +0.027 A 
ATOM     22  C   UNL     1       4.348  -1.349  -1.289  1.00  0.00    +0.022 A 
ATOM     23  C   UNL     1       4.525   0.837  -0.268  1.00  0.00    +0.022 A 
ATOM     24  C   UNL     1       5.124  -0.279  -0.849  1.00  0.00    +0.067 A 
BRANCH  24  25
ATOM     25  S   UNL     1       6.886  -0.318  -1.063  1.00  0.00    +0.175 S 
ATOM     26  O   UNL     1       7.182  -1.289  -2.100  1.00  0.00    -0.224 OA
ATOM     27  O   UNL     1       7.346   1.053  -1.176  1.00  0.00    -0.224 OA
ATOM     28  C   UNL     1       7.466  -0.971   0.481  1.00  0.00    +0.163 C 
ENDBRANCH  24  25
ENDBRANCH  17  19
ENDBRANCH   5  17
TORSDOF 5
