MODEL 1
REMARK VINA RESULT:    -8.190      0.000      0.000
REMARK INTER + INTRA:         -11.202
REMARK INTER:                 -10.584
REMARK INTRA:                  -0.617
REMARK UNBOUND:                -0.617
REMARK SMILES CS(=O)(=O)c1ccc(Nc2nccc(-c3ccc(C(F)(F)F)cc3)n2)cc1
REMARK SMILES IDX 14 1 13 2 12 3 11 4 10 5 25 6 15 7 16 8 17 9 18 10 24 11
REMARK SMILES IDX 23 12 19 13 20 14 21 15 22 16 9 17 8 19 7 20 26 21 6 22
REMARK SMILES IDX 27 23 5 24 2 25 3 26 4 27 1 28
REMARK H PARENT 9 18
ROOT
ATOM      1  C   UNL     1     -51.346   0.698 -21.597  1.00  0.00    +0.076 A 
ATOM      2  C   UNL     1     -52.283   1.551 -22.141  1.00  0.00    +0.049 A 
ATOM      3  C   UNL     1     -53.109   2.186 -21.249  1.00  0.00    +0.117 A 
ATOM      4  N   UNL     1     -53.038   2.012 -19.919  1.00  0.00    -0.221 NA
ATOM      5  C   UNL     1     -52.099   1.176 -19.458  1.00  0.00    +0.227 A 
ATOM      6  N   UNL     1     -51.248   0.515 -20.259  1.00  0.00    -0.213 NA
ENDROOT
BRANCH   1   7
ATOM      7  C   UNL     1     -50.381  -0.063 -22.417  1.00  0.00    +0.000 A 
ATOM      8  C   UNL     1     -50.612  -0.269 -23.789  1.00  0.00    +0.011 A 
ATOM      9  C   UNL     1     -49.713  -0.990 -24.585  1.00  0.00    +0.014 A 
ATOM     10  C   UNL     1     -48.548  -1.530 -24.028  1.00  0.00    +0.056 A 
ATOM     11  C   UNL     1     -49.198  -0.597 -21.876  1.00  0.00    +0.011 A 
ATOM     12  C   UNL     1     -48.295  -1.318 -22.668  1.00  0.00    +0.014 A 
BRANCH  10  13
ATOM     13  C   UNL     1     -47.563  -2.286 -24.886  1.00  0.00    +0.416 C 
ATOM     14  F   UNL     1     -46.732  -3.073 -24.150  1.00  0.00    -0.166 F 
ATOM     15  F   UNL     1     -48.167  -3.116 -25.782  1.00  0.00    -0.166 F 
ATOM     16  F   UNL     1     -46.756  -1.471 -25.621  1.00  0.00    -0.166 F 
ENDBRANCH  10  13
ENDBRANCH   1   7
BRANCH   5  17
ATOM     17  N   UNL     1     -51.940   0.917 -18.100  1.00  0.00    -0.324 N 
ATOM     18  H   UNL     1     -52.111  -0.064 -17.937  1.00  0.00    +0.170 HD
BRANCH  17  19
ATOM     19  C   UNL     1     -51.552   1.688 -17.000  1.00  0.00    +0.041 A 
ATOM     20  C   UNL     1     -50.726   1.097 -16.026  1.00  0.00    +0.027 A 
ATOM     21  C   UNL     1     -51.953   3.014 -16.795  1.00  0.00    +0.027 A 
ATOM     22  C   UNL     1     -50.314   1.800 -14.890  1.00  0.00    +0.022 A 
ATOM     23  C   UNL     1     -51.546   3.732 -15.665  1.00  0.00    +0.022 A 
ATOM     24  C   UNL     1     -50.739   3.115 -14.712  1.00  0.00    +0.067 A 
BRANCH  24  25
ATOM     25  S   UNL     1     -50.220   4.025 -13.279  1.00  0.00    +0.175 S 
ATOM     26  O   UNL     1     -50.039   5.408 -13.678  1.00  0.00    -0.224 OA
ATOM     27  O   UNL     1     -51.113   3.677 -12.189  1.00  0.00    -0.224 OA
ATOM     28  C   UNL     1     -48.622   3.343 -12.924  1.00  0.00    +0.163 C 
ENDBRANCH  24  25
ENDBRANCH  17  19
ENDBRANCH   5  17
TORSDOF 5
ENDMDL
