MODEL 1
REMARK VINA RESULT:    -7.931      0.000      0.000
REMARK INTER + INTRA:         -10.853
REMARK INTER:                 -10.249
REMARK INTRA:                  -0.604
REMARK UNBOUND:                -0.604
REMARK SMILES CS(=O)(=O)c1ccc(Nc2nccc(-c3ccc(C(F)(F)F)cc3I)n2)cc1
REMARK SMILES IDX 14 1 13 2 12 3 11 4 10 5 26 6 15 7 24 8 23 9 18 10 16 11
REMARK SMILES IDX 17 12 25 13 19 14 20 15 21 16 22 17 9 18 8 20 7 21 27 22
REMARK SMILES IDX 6 23 28 24 5 25 2 26 3 27 4 28 1 29
REMARK H PARENT 9 19
ROOT
ATOM      1  C   UNL     1     -48.948  -1.642 -23.751  1.00  0.00    +0.077 A 
ATOM      2  C   UNL     1     -48.166  -1.192 -24.792  1.00  0.00    +0.049 A 
ATOM      3  C   UNL     1     -47.447  -2.156 -25.450  1.00  0.00    +0.117 A 
ATOM      4  N   UNL     1     -47.490  -3.461 -25.127  1.00  0.00    -0.221 NA
ATOM      5  C   UNL     1     -48.285  -3.821 -24.111  1.00  0.00    +0.227 A 
ATOM      6  N   UNL     1     -49.025  -2.947 -23.411  1.00  0.00    -0.213 NA
ENDROOT
BRANCH   1   7
ATOM      7  C   UNL     1     -49.797  -0.740 -22.964  1.00  0.00    +0.014 A 
ATOM      8  C   UNL     1     -49.410  -0.157 -21.742  1.00  0.00    +0.023 A 
ATOM      9  C   UNL     1     -50.275   0.706 -21.051  1.00  0.00    +0.028 A 
ATOM     10  C   UNL     1     -51.551   0.999 -21.556  1.00  0.00    +0.057 A 
ATOM     11  C   UNL     1     -51.082  -0.437 -23.454  1.00  0.00    +0.012 A 
ATOM     12  C   UNL     1     -51.945   0.422 -22.767  1.00  0.00    +0.014 A 
ATOM     13  I   UNL     1     -47.554  -0.549 -20.829  1.00  0.00    -0.044 I 
BRANCH  10  14
ATOM     14  C   UNL     1     -52.466   1.944 -20.815  1.00  0.00    +0.416 C 
ATOM     15  F   UNL     1     -53.447   2.462 -21.604  1.00  0.00    -0.166 F 
ATOM     16  F   UNL     1     -51.814   3.013 -20.280  1.00  0.00    -0.166 F 
ATOM     17  F   UNL     1     -53.102   1.335 -19.777  1.00  0.00    -0.166 F 
ENDBRANCH  10  14
ENDBRANCH   1   7
BRANCH   5  18
ATOM     18  N   UNL     1     -48.400  -5.144 -23.695  1.00  0.00    -0.324 N 
ATOM     19  H   UNL     1     -48.502  -5.729 -24.511  1.00  0.00    +0.170 HD
BRANCH  18  20
ATOM     20  C   UNL     1     -48.358  -5.784 -22.452  1.00  0.00    +0.041 A 
ATOM     21  C   UNL     1     -49.146  -5.410 -21.356  1.00  0.00    +0.027 A 
ATOM     22  C   UNL     1     -47.490  -6.878 -22.291  1.00  0.00    +0.027 A 
ATOM     23  C   UNL     1     -49.073  -6.096 -20.139  1.00  0.00    +0.022 A 
ATOM     24  C   UNL     1     -47.407  -7.576 -21.082  1.00  0.00    +0.022 A 
ATOM     25  C   UNL     1     -48.213  -7.187 -20.014  1.00  0.00    +0.067 A 
BRANCH  25  26
ATOM     26  S   UNL     1     -48.118  -8.057 -18.470  1.00  0.00    +0.175 S 
ATOM     27  O   UNL     1     -47.225  -7.314 -17.600  1.00  0.00    -0.224 OA
ATOM     28  O   UNL     1     -49.473  -8.364 -18.056  1.00  0.00    -0.224 OA
ATOM     29  C   UNL     1     -47.316  -9.576 -18.910  1.00  0.00    +0.163 C 
ENDBRANCH  25  26
ENDBRANCH  18  20
ENDBRANCH   5  18
TORSDOF 5
ENDMDL
