REMARK SMILES CS(=O)(=O)c1ccc(Nc2nccc(-c3ccc(C(F)(F)F)cc3I)n2)cc1
REMARK SMILES IDX 14 1 13 2 12 3 11 4 10 5 26 6 15 7 24 8 23 9 18 10 16 11
REMARK SMILES IDX 17 12 25 13 19 14 20 15 21 16 22 17 9 18 8 20 7 21 27 22
REMARK SMILES IDX 6 23 28 24 5 25 2 26 3 27 4 28 1 29
REMARK H PARENT 9 19
ROOT
ATOM      1  C   UNL     1      -2.295   0.125   1.034  1.00  0.00    +0.077 A 
ATOM      2  C   UNL     1      -2.081   0.490   2.345  1.00  0.00    +0.049 A 
ATOM      3  C   UNL     1      -0.772   0.697   2.694  1.00  0.00    +0.117 A 
ATOM      4  N   UNL     1       0.253   0.569   1.833  1.00  0.00    -0.221 NA
ATOM      5  C   UNL     1      -0.038   0.225   0.571  1.00  0.00    +0.227 A 
ATOM      6  N   UNL     1      -1.290   0.003   0.140  1.00  0.00    -0.213 NA
ENDROOT
BRANCH   1   7
ATOM      7  C   UNL     1      -3.641  -0.108   0.497  1.00  0.00    +0.014 A 
ATOM      8  C   UNL     1      -4.421  -1.243   0.788  1.00  0.00    +0.023 A 
ATOM      9  C   UNL     1      -5.707  -1.391   0.244  1.00  0.00    +0.028 A 
ATOM     10  C   UNL     1      -6.240  -0.417  -0.614  1.00  0.00    +0.057 A 
ATOM     11  C   UNL     1      -4.190   0.858  -0.368  1.00  0.00    +0.012 A 
ATOM     12  C   UNL     1      -5.470   0.712  -0.911  1.00  0.00    +0.014 A 
ATOM     13  I   UNL     1      -3.735  -2.817   2.007  1.00  0.00    -0.044 I 
BRANCH  10  14
ATOM     14  C   UNL     1      -7.631  -0.576  -1.178  1.00  0.00    +0.416 C 
ATOM     15  F   UNL     1      -7.953  -1.872  -1.442  1.00  0.00    -0.166 F 
ATOM     16  F   UNL     1      -7.818   0.100  -2.345  1.00  0.00    -0.166 F 
ATOM     17  F   UNL     1      -8.587  -0.119  -0.323  1.00  0.00    -0.166 F 
ENDBRANCH  10  14
ENDBRANCH   1   7
BRANCH   5  18
ATOM     18  N   UNL     1       0.948   0.064  -0.398  1.00  0.00    -0.324 N 
ATOM     19  H   UNL     1       0.505  -0.203  -1.265  1.00  0.00    +0.170 HD
BRANCH  18  20
ATOM     20  C   UNL     1       2.336   0.233  -0.415  1.00  0.00    +0.041 A 
ATOM     21  C   UNL     1       3.080   0.685   0.681  1.00  0.00    +0.027 A 
ATOM     22  C   UNL     1       3.034  -0.085  -1.594  1.00  0.00    +0.027 A 
ATOM     23  C   UNL     1       4.471   0.821   0.611  1.00  0.00    +0.022 A 
ATOM     24  C   UNL     1       4.424   0.044  -1.679  1.00  0.00    +0.022 A 
ATOM     25  C   UNL     1       5.137   0.485  -0.567  1.00  0.00    +0.067 A 
BRANCH  25  26
ATOM     26  S   UNL     1       6.901   0.659  -0.658  1.00  0.00    +0.175 S 
ATOM     27  O   UNL     1       7.265   0.728  -2.061  1.00  0.00    -0.224 OA
ATOM     28  O   UNL     1       7.286   1.712   0.261  1.00  0.00    -0.224 OA
ATOM     29  C   UNL     1       7.494  -0.883  -0.013  1.00  0.00    +0.163 C 
ENDBRANCH  25  26
ENDBRANCH  18  20
ENDBRANCH   5  18
TORSDOF 5
