MODEL 1
REMARK VINA RESULT:    -7.134      0.000      0.000
REMARK INTER + INTRA:         -13.222
REMARK INTER:                 -11.304
REMARK INTRA:                  -1.918
REMARK UNBOUND:                -1.918
REMARK SMILES C=CC(=O)Nc1cc(Nc2nccc(-c3cn(C)c4ccccc34)n2)c(OC)cc1N(C)CCN(C)C
REMARK SMILES IDX 26 1 29 2 30 3 6 4 7 5 8 6 27 7 28 8 9 9 10 11 11 12 25 13
REMARK SMILES IDX 12 14 14 15 13 16 15 17 16 18 24 19 17 20 23 21 19 22 22 23
REMARK SMILES IDX 20 24 21 25 18 26 31 27 32 28 33 29 34 30 35 31 36 32 37 33
REMARK SMILES IDX 5 34 3 35 4 36 2 38 1 39
REMARK H PARENT 9 10 5 37
ROOT
ATOM      1  C   UNL     1      -1.446 -50.065  25.721  1.00  0.00    +0.144 A 
ATOM      2  C   UNL     1      -2.410 -49.063  25.857  1.00  0.00    +0.076 A 
ATOM      3  C   UNL     1      -2.796 -48.297  24.748  1.00  0.00    +0.064 A 
ATOM      4  C   UNL     1      -2.182 -48.537  23.496  1.00  0.00    +0.067 A 
ATOM      5  C   UNL     1      -1.221 -49.542  23.361  1.00  0.00    +0.058 A 
ATOM      6  C   UNL     1      -0.841 -50.320  24.465  1.00  0.00    +0.086 A 
ENDROOT
BRANCH   1   7
ATOM      7  O   UNL     1      -1.000 -50.865  26.753  1.00  0.00    -0.494 OA
ATOM      8  C   UNL     1      -1.912 -51.821  27.277  1.00  0.00    +0.278 C 
ENDBRANCH   1   7
BRANCH   6   9
ATOM      9  N   UNL     1       0.097 -51.367  24.394  1.00  0.00    -0.321 N 
ATOM     10  H   UNL     1       0.421 -51.699  25.293  1.00  0.00    +0.170 HD
BRANCH   9  11
ATOM     11  C   UNL     1       0.593 -52.164  23.372  1.00  0.00    +0.227 A 
ATOM     12  N   UNL     1       0.965 -53.403  23.739  1.00  0.00    -0.221 NA
ATOM     13  N   UNL     1       0.664 -51.726  22.114  1.00  0.00    -0.213 NA
ATOM     14  C   UNL     1       1.447 -54.210  22.777  1.00  0.00    +0.117 A 
ATOM     15  C   UNL     1       1.137 -52.568  21.172  1.00  0.00    +0.078 A 
ATOM     16  C   UNL     1       1.558 -53.842  21.461  1.00  0.00    +0.049 A 
BRANCH  15  17
ATOM     17  C   UNL     1       1.212 -52.029  19.821  1.00  0.00    +0.026 A 
ATOM     18  C   UNL     1       1.903 -52.684  18.818  1.00  0.00    +0.096 A 
ATOM     19  C   UNL     1       0.679 -50.830  19.240  1.00  0.00    +0.009 A 
ATOM     20  N   UNL     1       1.810 -51.950  17.672  1.00  0.00    -0.350 N 
ATOM     21  C   UNL     1      -0.073 -49.739  19.732  1.00  0.00    +0.011 A 
ATOM     22  C   UNL     1       1.055 -50.817  17.890  1.00  0.00    +0.048 A 
ATOM     23  C   UNL     1      -0.445 -48.701  18.870  1.00  0.00    +0.001 A 
ATOM     24  C   UNL     1       0.687 -49.780  17.017  1.00  0.00    +0.027 A 
ATOM     25  C   UNL     1      -0.072 -48.726  17.531  1.00  0.00    +0.002 A 
ATOM     26  C   UNL     1       2.441 -52.310  16.423  1.00  0.00    +0.149 C 
ENDBRANCH  15  17
ENDBRANCH   9  11
ENDBRANCH   6   9
BRANCH   3  27
ATOM     27  N   UNL     1      -3.766 -47.246  24.839  1.00  0.00    -0.372 N 
ATOM     28  C   UNL     1      -3.273 -46.210  25.761  1.00  0.00    +0.143 C 
BRANCH  27  29
ATOM     29  C   UNL     1      -5.124 -47.756  25.151  1.00  0.00    +0.131 C 
BRANCH  29  30
ATOM     30  C   UNL     1      -5.953 -47.905  23.853  1.00  0.00    +0.105 C 
BRANCH  30  31
ATOM     31  N   UNL     1      -6.567 -49.238  23.681  1.00  0.00    -0.308 NA
ATOM     32  C   UNL     1      -7.452 -49.285  22.515  1.00  0.00    +0.105 C 
ATOM     33  C   UNL     1      -5.523 -50.259  23.551  1.00  0.00    +0.105 C 
ENDBRANCH  30  31
ENDBRANCH  29  30
ENDBRANCH  27  29
ENDBRANCH   3  27
BRANCH   4  34
ATOM     34  N   UNL     1      -2.640 -47.719  22.440  1.00  0.00    -0.321 N 
ATOM     35  C   UNL     1      -1.959 -46.774  21.726  1.00  0.00    +0.247 C 
ATOM     36  O   UNL     1      -0.826 -46.353  21.922  1.00  0.00    -0.270 OA
ATOM     37  H   UNL     1      -3.635 -47.841  22.277  1.00  0.00    +0.170 HD
BRANCH  35  38
ATOM     38  C   UNL     1      -2.758 -46.147  20.635  1.00  0.00    +0.064 C 
ATOM     39  C   UNL     1      -3.456 -46.816  19.705  1.00  0.00    +0.014 C 
ENDBRANCH  35  38
ENDBRANCH   4  34
TORSDOF 10
ENDMDL
