REMARK SMILES C=CC(=O)Nc1cc(Nc2nccc(-c3cn(C)c4ccccc34)n2)c(OC)cc1N(C)CCN(C)C
REMARK SMILES IDX 26 1 29 2 30 3 6 4 7 5 8 6 27 7 28 8 9 9 10 11 11 12 25 13
REMARK SMILES IDX 12 14 14 15 13 16 15 17 16 18 24 19 17 20 23 21 19 22 22 23
REMARK SMILES IDX 20 24 21 25 18 26 31 27 32 28 33 29 34 30 35 31 36 32 37 33
REMARK SMILES IDX 5 34 3 35 4 36 2 38 1 39
REMARK H PARENT 9 10 5 37
ROOT
ATOM      1  C   UNL     1      -1.399  -0.439   2.945  1.00  0.00    +0.144 A 
ATOM      2  C   UNL     1      -2.546  -0.232   2.174  1.00  0.00    +0.076 A 
ATOM      3  C   UNL     1      -2.449   0.358   0.906  1.00  0.00    +0.064 A 
ATOM      4  C   UNL     1      -1.180   0.760   0.426  1.00  0.00    +0.067 A 
ATOM      5  C   UNL     1      -0.034   0.548   1.197  1.00  0.00    +0.058 A 
ATOM      6  C   UNL     1      -0.124  -0.054   2.461  1.00  0.00    +0.086 A 
ENDROOT
BRANCH   1   7
ATOM      7  O   UNL     1      -1.396  -1.007   4.202  1.00  0.00    -0.494 OA
ATOM      8  C   UNL     1      -2.620  -1.554   4.673  1.00  0.00    +0.278 C 
ENDBRANCH   1   7
BRANCH   6   9
ATOM      9  N   UNL     1       0.991  -0.324   3.276  1.00  0.00    -0.321 N 
ATOM     10  H   UNL     1       0.761  -0.684   4.193  1.00  0.00    +0.170 HD
BRANCH   9  11
ATOM     11  C   UNL     1       2.364  -0.346   3.075  1.00  0.00    +0.227 A 
ATOM     12  N   UNL     1       3.096  -0.697   4.146  1.00  0.00    -0.221 NA
ATOM     13  N   UNL     1       2.902  -0.063   1.887  1.00  0.00    -0.213 NA
ATOM     14  C   UNL     1       4.432  -0.737   3.992  1.00  0.00    +0.117 A 
ATOM     15  C   UNL     1       4.244  -0.128   1.764  1.00  0.00    +0.078 A 
ATOM     16  C   UNL     1       5.069  -0.458   2.811  1.00  0.00    +0.049 A 
BRANCH  15  17
ATOM     17  C   UNL     1       4.777   0.212   0.452  1.00  0.00    +0.026 A 
ATOM     18  C   UNL     1       4.180   1.171  -0.345  1.00  0.00    +0.096 A 
ATOM     19  C   UNL     1       5.902  -0.293  -0.282  1.00  0.00    +0.009 A 
ATOM     20  N   UNL     1       4.884   1.272  -1.509  1.00  0.00    -0.350 N 
ATOM     21  C   UNL     1       6.875  -1.290  -0.043  1.00  0.00    +0.011 A 
ATOM     22  C   UNL     1       5.953   0.402  -1.498  1.00  0.00    +0.048 A 
ATOM     23  C   UNL     1       7.870  -1.538  -0.996  1.00  0.00    +0.001 A 
ATOM     24  C   UNL     1       6.947   0.160  -2.460  1.00  0.00    +0.027 A 
ATOM     25  C   UNL     1       7.905  -0.818  -2.185  1.00  0.00    +0.002 A 
ATOM     26  C   UNL     1       4.530   2.152  -2.599  1.00  0.00    +0.149 C 
ENDBRANCH  15  17
ENDBRANCH   9  11
ENDBRANCH   6   9
BRANCH   3  27
ATOM     27  N   UNL     1      -3.596   0.609   0.084  1.00  0.00    -0.372 N 
ATOM     28  C   UNL     1      -4.314   1.786   0.601  1.00  0.00    +0.143 C 
BRANCH  27  29
ATOM     29  C   UNL     1      -4.438  -0.599  -0.095  1.00  0.00    +0.131 C 
BRANCH  29  30
ATOM     30  C   UNL     1      -5.185  -0.537  -1.449  1.00  0.00    +0.105 C 
BRANCH  30  31
ATOM     31  N   UNL     1      -5.964  -1.753  -1.763  1.00  0.00    -0.308 NA
ATOM     32  C   UNL     1      -7.144  -1.882  -0.905  1.00  0.00    +0.105 C 
ATOM     33  C   UNL     1      -6.375  -1.737  -3.170  1.00  0.00    +0.105 C 
ENDBRANCH  30  31
ENDBRANCH  29  30
ENDBRANCH  27  29
ENDBRANCH   3  27
BRANCH   4  34
ATOM     34  N   UNL     1      -1.184   1.339  -0.861  1.00  0.00    -0.321 N 
ATOM     35  C   UNL     1      -0.164   1.954  -1.532  1.00  0.00    +0.247 C 
ATOM     36  O   UNL     1       0.952   2.234  -1.113  1.00  0.00    -0.270 OA
ATOM     37  H   UNL     1      -2.113   1.332  -1.272  1.00  0.00    +0.170 HD
BRANCH  35  38
ATOM     38  C   UNL     1      -0.524   2.394  -2.910  1.00  0.00    +0.064 C 
ATOM     39  C   UNL     1      -1.394   1.771  -3.718  1.00  0.00    +0.014 C 
ENDBRANCH  35  38
ENDBRANCH   4  34
TORSDOF 10
