MODEL 1
REMARK VINA RESULT:    -8.944      0.000      0.000
REMARK INTER + INTRA:         -10.931
REMARK INTER:                 -11.035
REMARK INTRA:                   0.104
REMARK UNBOUND:                 0.104
REMARK SMILES N#Cc1ccc(Nc2nccc(-c3ccc(Cl)cc3N3CCOCC3)n2)cc1
REMARK SMILES IDX 8 1 9 2 10 3 11 4 12 5 26 6 7 7 6 9 1 10 2 11 3 12 4 13
REMARK SMILES IDX 28 14 5 15 27 16 13 17 14 18 19 19 15 20 18 21 16 22 17 23
REMARK SMILES IDX 20 24 21 25 25 26 22 27 24 28 23 29
REMARK H PARENT 7 8
ROOT
ATOM      1  C   UNL     1     -52.097   1.267 -19.358  1.00  0.00    +0.227 A 
ATOM      2  N   UNL     1     -53.054   2.042 -19.884  1.00  0.00    -0.221 NA
ATOM      3  C   UNL     1     -53.111   2.126 -21.224  1.00  0.00    +0.117 A 
ATOM      4  C   UNL     1     -52.253   1.461 -22.061  1.00  0.00    +0.049 A 
ATOM      5  C   UNL     1     -51.303   0.673 -21.448  1.00  0.00    +0.078 A 
ATOM      6  N   UNL     1     -51.213   0.581 -20.100  1.00  0.00    -0.213 NA
ENDROOT
BRANCH   1   7
ATOM      7  N   UNL     1     -51.946   1.108 -17.982  1.00  0.00    -0.324 N 
ATOM      8  H   UNL     1     -52.157   0.150 -17.747  1.00  0.00    +0.170 HD
BRANCH   7   9
ATOM      9  C   UNL     1     -51.590   1.963 -16.936  1.00  0.00    +0.041 A 
ATOM     10  N   UNL     1     -50.072   5.082 -12.763  1.00  0.00    -0.192 NA
ATOM     11  C   UNL     1     -50.397   4.416 -13.656  1.00  0.00    +0.099 C 
ATOM     12  C   UNL     1     -50.797   3.590 -14.758  1.00  0.00    +0.052 A 
ATOM     13  C   UNL     1     -51.601   4.109 -15.773  1.00  0.00    +0.021 A 
ATOM     14  C   UNL     1     -50.386   2.258 -14.825  1.00  0.00    +0.021 A 
ATOM     15  C   UNL     1     -51.990   3.300 -16.848  1.00  0.00    +0.027 A 
ATOM     16  C   UNL     1     -50.780   1.459 -15.904  1.00  0.00    +0.027 A 
ENDBRANCH   7   9
ENDBRANCH   1   7
BRANCH   5  17
ATOM     17  C   UNL     1     -50.299  -0.104 -22.207  1.00  0.00    +0.024 A 
ATOM     18  C   UNL     1     -49.345  -0.849 -21.478  1.00  0.00    +0.014 A 
ATOM     19  C   UNL     1     -50.237  -0.116 -23.630  1.00  0.00    +0.048 A 
ATOM     20  C   UNL     1     -48.342  -1.577 -22.118  1.00  0.00    +0.021 A 
ATOM     21  C   UNL     1     -49.215  -0.862 -24.252  1.00  0.00    +0.047 A 
ATOM     22  C   UNL     1     -48.283  -1.578 -23.502  1.00  0.00    +0.043 A 
ATOM     23 Cl   UNL     1     -47.055  -2.480 -24.305  1.00  0.00    -0.084 Cl
BRANCH  19  24
ATOM     24  N   UNL     1     -51.214   0.557 -24.395  1.00  0.00    -0.366 N 
ATOM     25  C   UNL     1     -52.066  -0.398 -25.154  1.00  0.00    +0.145 C 
ATOM     26  C   UNL     1     -50.805   1.743 -25.186  1.00  0.00    +0.145 C 
ATOM     27  C   UNL     1     -52.918   0.361 -26.182  1.00  0.00    +0.181 C 
ATOM     28  C   UNL     1     -50.842   1.454 -26.694  1.00  0.00    +0.181 C 
ATOM     29  O   UNL     1     -52.137   1.058 -27.168  1.00  0.00    -0.378 OA
ENDBRANCH  19  24
ENDBRANCH   5  17
TORSDOF 4
ENDMDL
