REMARK SMILES Fc1ccc(Nc2nccc(-c3ccc(Cl)cc3C3COC3)n2)cc1
REMARK SMILES IDX 7 1 8 2 9 3 10 4 11 5 23 6 6 7 5 9 2 10 3 11 25 12 4 13
REMARK SMILES IDX 24 14 1 15 12 16 13 17 18 18 14 19 17 20 15 21 16 22 19 23
REMARK SMILES IDX 20 24 22 25 21 26
REMARK H PARENT 6 8
ROOT
ATOM      1  C   UNL     1       1.349   0.106   0.422  1.00  0.00    +0.227 A 
ATOM      2  N   UNL     1       1.978  -0.470   1.455  1.00  0.00    -0.221 NA
ATOM      3  C   UNL     1       1.253  -0.737   2.555  1.00  0.00    +0.117 A 
ATOM      4  C   UNL     1      -0.082  -0.449   2.668  1.00  0.00    +0.049 A 
ATOM      5  C   UNL     1      -0.659   0.139   1.563  1.00  0.00    +0.076 A 
ATOM      6  N   UNL     1       0.043   0.418   0.442  1.00  0.00    -0.213 NA
ENDROOT
BRANCH   1   7
ATOM      7  N   UNL     1       2.008   0.434  -0.758  1.00  0.00    -0.324 N 
ATOM      8  H   UNL     1       1.356   0.887  -1.381  1.00  0.00    +0.170 HD
BRANCH   7   9
ATOM      9  C   UNL     1       3.319   0.276  -1.219  1.00  0.00    +0.041 A 
ATOM     10  C   UNL     1       5.922   0.035  -2.253  1.00  0.00    +0.123 A 
ATOM     11  C   UNL     1       5.626  -0.491  -1.004  1.00  0.00    +0.041 A 
ATOM     12  C   UNL     1       4.948   0.681  -2.998  1.00  0.00    +0.041 A 
ATOM     13  C   UNL     1       4.329  -0.369  -0.492  1.00  0.00    +0.029 A 
ATOM     14  C   UNL     1       3.654   0.800  -2.481  1.00  0.00    +0.029 A 
ATOM     15  F   UNL     1       7.162  -0.083  -2.744  1.00  0.00    -0.207 F 
ENDBRANCH   7   9
ENDBRANCH   1   7
BRANCH   5  16
ATOM     16  C   UNL     1      -2.086   0.506   1.527  1.00  0.00    +0.004 A 
ATOM     17  C   UNL     1      -2.576   1.421   2.486  1.00  0.00    +0.012 A 
ATOM     18  C   UNL     1      -2.960  -0.026   0.531  1.00  0.00    -0.029 A 
ATOM     19  C   UNL     1      -3.907   1.832   2.480  1.00  0.00    +0.021 A 
ATOM     20  C   UNL     1      -4.300   0.434   0.552  1.00  0.00    +0.025 A 
ATOM     21  C   UNL     1      -4.764   1.339   1.509  1.00  0.00    +0.041 A 
ATOM     22 Cl   UNL     1      -6.406   1.850   1.478  1.00  0.00    -0.084 Cl
BRANCH  18  23
ATOM     23  C   UNL     1      -2.451  -1.074  -0.575  1.00  0.00    +0.072 C 
ATOM     24  C   UNL     1      -3.433  -1.974  -1.343  1.00  0.00    +0.170 C 
ATOM     25  C   UNL     1      -2.114  -0.516  -1.968  1.00  0.00    +0.170 C 
ATOM     26  O   UNL     1      -3.154  -1.305  -2.592  1.00  0.00    -0.380 OA
ENDBRANCH  18  23
ENDBRANCH   5  16
TORSDOF 4
