MODEL 1
REMARK VINA RESULT:    -8.709      0.000      0.000
REMARK INTER + INTRA:         -13.187
REMARK INTER:                 -11.763
REMARK INTRA:                  -1.423
REMARK UNBOUND:                -1.423
REMARK SMILES CC(=O)Nc1cc(C2CC2)ccc1-c1ccnc(Nc2ccc(S(C)(=O)=O)cc2)n1
REMARK SMILES IDX 14 1 15 2 16 3 17 4 18 5 30 6 13 7 5 8 6 9 7 10 12 11 11 12
REMARK SMILES IDX 4 13 2 14 3 15 1 16 8 18 9 19 10 20 19 21 20 23 21 24 29 25
REMARK SMILES IDX 22 26 28 27 23 28 24 29 26 30 27 31 25 32
REMARK H PARENT 4 17 19 22
ROOT
ATOM      1  C   UNL     1     -50.211  -0.600 -18.666  1.00  0.00    +0.078 A 
ATOM      2  C   UNL     1     -50.127  -1.842 -18.070  1.00  0.00    +0.049 A 
ATOM      3  C   UNL     1     -49.736  -2.872 -18.886  1.00  0.00    +0.117 A 
ATOM      4  N   UNL     1     -49.437  -2.717 -20.186  1.00  0.00    -0.221 NA
ATOM      5  C   UNL     1     -49.533  -1.480 -20.695  1.00  0.00    +0.227 A 
ATOM      6  N   UNL     1     -49.883  -0.408 -19.965  1.00  0.00    -0.213 NA
ENDROOT
BRANCH   1   7
ATOM      7  C   UNL     1     -50.555   0.617 -17.904  1.00  0.00    +0.024 A 
ATOM      8  C   UNL     1     -51.650   1.470 -18.171  1.00  0.00    +0.050 A 
ATOM      9  C   UNL     1     -51.999   2.469 -17.236  1.00  0.00    +0.030 A 
ATOM     10  C   UNL     1     -51.250   2.718 -16.074  1.00  0.00    -0.043 A 
ATOM     11  C   UNL     1     -49.798   0.885 -16.742  1.00  0.00    +0.013 A 
ATOM     12  C   UNL     1     -50.136   1.908 -15.852  1.00  0.00    +0.005 A 
BRANCH   8  13
ATOM     13  N   UNL     1     -52.485   1.416 -19.317  1.00  0.00    -0.326 N 
ATOM     14  C   UNL     1     -52.180   1.945 -20.562  1.00  0.00    +0.221 C 
ATOM     15  O   UNL     1     -51.162   2.548 -20.875  1.00  0.00    -0.275 OA
ATOM     16  C   UNL     1     -53.295   1.729 -21.555  1.00  0.00    +0.114 C 
ATOM     17  H   UNL     1     -53.479   1.329 -19.131  1.00  0.00    +0.169 HD
ENDBRANCH   8  13
BRANCH  10  18
ATOM     18  C   UNL     1     -51.658   3.800 -15.103  1.00  0.00    +0.019 C 
ATOM     19  C   UNL     1     -51.436   5.252 -15.466  1.00  0.00    +0.009 C 
ATOM     20  C   UNL     1     -50.616   4.622 -14.380  1.00  0.00    +0.009 C 
ENDBRANCH  10  18
ENDBRANCH   1   7
BRANCH   5  21
ATOM     21  N   UNL     1     -49.271  -1.207 -22.035  1.00  0.00    -0.324 N 
ATOM     22  H   UNL     1     -48.288  -0.992 -22.120  1.00  0.00    +0.170 HD
BRANCH  21  23
ATOM     23  C   UNL     1     -50.076  -0.974 -23.153  1.00  0.00    +0.041 A 
ATOM     24  C   UNL     1     -50.491   0.300 -23.563  1.00  0.00    +0.027 A 
ATOM     25  C   UNL     1     -50.525  -2.081 -23.900  1.00  0.00    +0.027 A 
ATOM     26  C   UNL     1     -51.294   0.474 -24.697  1.00  0.00    +0.022 A 
ATOM     27  C   UNL     1     -51.326  -1.923 -25.036  1.00  0.00    +0.022 A 
ATOM     28  C   UNL     1     -51.693  -0.641 -25.437  1.00  0.00    +0.067 A 
BRANCH  28  29
ATOM     29  S   UNL     1     -52.682  -0.409 -26.894  1.00  0.00    +0.175 S 
ATOM     30  O   UNL     1     -53.919   0.229 -26.483  1.00  0.00    -0.224 OA
ATOM     31  O   UNL     1     -52.694  -1.660 -27.628  1.00  0.00    -0.224 OA
ATOM     32  C   UNL     1     -51.741   0.761 -27.842  1.00  0.00    +0.163 C 
ENDBRANCH  28  29
ENDBRANCH  21  23
ENDBRANCH   5  21
TORSDOF 6
ENDMDL
