REMARK SMILES O=C1COCCN1c1cc(Cl)ccc1-c1ccnc(Nc2ccc(F)cc2)n1
REMARK SMILES IDX 15 1 16 2 17 3 18 4 19 5 28 6 14 7 8 8 9 9 10 10 13 11 12 12
REMARK SMILES IDX 11 13 7 14 1 15 2 16 3 17 4 18 6 19 5 20 20 21 21 23 22 24
REMARK SMILES IDX 27 25 23 26 26 27 24 28 25 29
REMARK H PARENT 20 22
ROOT
ATOM      1  C   UNL     1      -0.215   1.873  -0.301  1.00  0.00    +0.078 A 
ATOM      2  C   UNL     1       0.487   2.760   0.487  1.00  0.00    +0.049 A 
ATOM      3  C   UNL     1       1.750   2.366   0.840  1.00  0.00    +0.117 A 
ATOM      4  N   UNL     1       2.305   1.207   0.442  1.00  0.00    -0.221 NA
ATOM      5  C   UNL     1       1.567   0.405  -0.335  1.00  0.00    +0.227 A 
ATOM      6  N   UNL     1       0.316   0.701  -0.722  1.00  0.00    -0.213 NA
ENDROOT
BRANCH   1   7
ATOM      7  C   UNL     1      -1.588   2.148  -0.759  1.00  0.00    +0.024 A 
ATOM      8  C   UNL     1      -2.688   1.299  -0.463  1.00  0.00    +0.055 A 
ATOM      9  C   UNL     1      -3.930   1.540  -1.077  1.00  0.00    +0.047 A 
ATOM     10  C   UNL     1      -4.102   2.629  -1.930  1.00  0.00    +0.043 A 
ATOM     11  C   UNL     1      -1.798   3.245  -1.623  1.00  0.00    +0.014 A 
ATOM     12  C   UNL     1      -3.045   3.489  -2.199  1.00  0.00    +0.021 A 
ATOM     13 Cl   UNL     1      -5.638   2.915  -2.651  1.00  0.00    -0.084 Cl
BRANCH   8  14
ATOM     14  N   UNL     1      -2.561   0.191   0.437  1.00  0.00    -0.307 N 
ATOM     15  O   UNL     1      -1.730   1.466   2.208  1.00  0.00    -0.272 OA
ATOM     16  C   UNL     1      -2.017   0.372   1.718  1.00  0.00    +0.253 C 
ATOM     17  C   UNL     1      -1.742  -0.931   2.494  1.00  0.00    +0.260 C 
ATOM     18  O   UNL     1      -2.517  -2.079   2.181  1.00  0.00    -0.370 OA
ATOM     19  C   UNL     1      -3.301  -1.039   0.165  1.00  0.00    +0.154 C 
ATOM     20  C   UNL     1      -2.599  -2.250   0.767  1.00  0.00    +0.183 C 
ENDBRANCH   8  14
ENDBRANCH   1   7
BRANCH   5  21
ATOM     21  N   UNL     1       2.045  -0.814  -0.808  1.00  0.00    -0.324 N 
ATOM     22  H   UNL     1       1.347  -1.220  -1.412  1.00  0.00    +0.170 HD
BRANCH  21  23
ATOM     23  C   UNL     1       3.246  -1.514  -0.659  1.00  0.00    +0.041 A 
ATOM     24  C   UNL     1       4.308  -1.079   0.144  1.00  0.00    +0.029 A 
ATOM     25  C   UNL     1       3.403  -2.730  -1.349  1.00  0.00    +0.029 A 
ATOM     26  C   UNL     1       5.486  -1.827   0.255  1.00  0.00    +0.041 A 
ATOM     27  C   UNL     1       4.577  -3.481  -1.242  1.00  0.00    +0.041 A 
ATOM     28  C   UNL     1       5.609  -3.021  -0.439  1.00  0.00    +0.123 A 
ATOM     29  F   UNL     1       6.736  -3.737  -0.333  1.00  0.00    -0.207 F 
ENDBRANCH  21  23
ENDBRANCH   5  21
TORSDOF 4
