MODEL 1
REMARK VINA RESULT:    -7.699      0.000      0.000
REMARK INTER + INTRA:         -10.282
REMARK INTER:                  -9.499
REMARK INTRA:                  -0.783
REMARK UNBOUND:                -0.783
REMARK SMILES Fc1ccc(Nc2nccc(-c3ccc(Cl)cc3C3COC3)n2)cc1
REMARK SMILES IDX 7 1 8 2 9 3 10 4 11 5 23 6 6 7 5 9 2 10 3 11 25 12 4 13
REMARK SMILES IDX 24 14 1 15 12 16 13 17 18 18 14 19 17 20 15 21 16 22 19 23
REMARK SMILES IDX 20 24 22 25 21 26
REMARK H PARENT 6 8
ROOT
ATOM      1  C   UNL     1     -50.988  -1.220 -24.932  1.00  0.00    +0.227 A 
ATOM      2  N   UNL     1     -50.904  -0.331 -25.931  1.00  0.00    -0.221 NA
ATOM      3  C   UNL     1     -50.884   0.972 -25.604  1.00  0.00    +0.117 A 
ATOM      4  C   UNL     1     -50.947   1.428 -24.313  1.00  0.00    +0.049 A 
ATOM      5  C   UNL     1     -51.028   0.454 -23.342  1.00  0.00    +0.076 A 
ATOM      6  N   UNL     1     -51.048  -0.864 -23.639  1.00  0.00    -0.213 NA
ENDROOT
BRANCH   1   7
ATOM      7  N   UNL     1     -51.027  -2.591 -25.161  1.00  0.00    -0.324 N 
ATOM      8  H   UNL     1     -51.833  -2.805 -25.730  1.00  0.00    +0.170 HD
BRANCH   7   9
ATOM      9  C   UNL     1     -50.213  -3.666 -24.787  1.00  0.00    +0.041 A 
ATOM     10  C   UNL     1     -48.478  -5.771 -24.111  1.00  0.00    +0.123 A 
ATOM     11  C   UNL     1     -49.730  -5.694 -23.519  1.00  0.00    +0.041 A 
ATOM     12  C   UNL     1     -48.070  -4.819 -25.032  1.00  0.00    +0.041 A 
ATOM     13  C   UNL     1     -50.591  -4.644 -23.858  1.00  0.00    +0.029 A 
ATOM     14  C   UNL     1     -48.935  -3.773 -25.367  1.00  0.00    +0.029 A 
ATOM     15  F   UNL     1     -47.654  -6.776 -23.788  1.00  0.00    -0.207 F 
ENDBRANCH   7   9
ENDBRANCH   1   7
BRANCH   5  16
ATOM     16  C   UNL     1     -51.099   0.784 -21.907  1.00  0.00    +0.004 A 
ATOM     17  C   UNL     1     -52.284   1.365 -21.402  1.00  0.00    +0.012 A 
ATOM     18  C   UNL     1     -50.008   0.502 -21.030  1.00  0.00    -0.029 A 
ATOM     19  C   UNL     1     -52.423   1.665 -20.048  1.00  0.00    +0.021 A 
ATOM     20  C   UNL     1     -50.201   0.807 -19.660  1.00  0.00    +0.025 A 
ATOM     21  C   UNL     1     -51.380   1.381 -19.181  1.00  0.00    +0.041 A 
ATOM     22 Cl   UNL     1     -51.543   1.731 -17.505  1.00  0.00    -0.084 Cl
BRANCH  18  23
ATOM     23  C   UNL     1     -48.639  -0.151 -21.558  1.00  0.00    +0.072 C 
ATOM     24  C   UNL     1     -47.334  -0.049 -20.751  1.00  0.00    +0.170 C 
ATOM     25  C   UNL     1     -48.461  -1.666 -21.360  1.00  0.00    +0.170 C 
ATOM     26  O   UNL     1     -47.315  -1.471 -20.500  1.00  0.00    -0.380 OA
ENDBRANCH  18  23
ENDBRANCH   5  16
TORSDOF 4
ENDMDL
