MODEL 1
REMARK VINA RESULT:    -8.011      0.000      0.000
REMARK INTER + INTRA:         -10.530
REMARK INTER:                  -9.884
REMARK INTRA:                  -0.645
REMARK UNBOUND:                -0.645
REMARK SMILES N#Cc1ccc(Nc2nccc(-c3ccc(Cl)cc3N3CCOCC3)n2)cc1
REMARK SMILES IDX 8 1 9 2 10 3 11 4 12 5 26 6 7 7 6 9 1 10 2 11 3 12 4 13
REMARK SMILES IDX 28 14 5 15 27 16 13 17 14 18 19 19 15 20 18 21 16 22 17 23
REMARK SMILES IDX 20 24 21 25 25 26 22 27 24 28 23 29
REMARK H PARENT 7 8
ROOT
ATOM      1  C   UNL     1     -51.589   1.429 -18.941  1.00  0.00    +0.227 A 
ATOM      2  N   UNL     1     -52.205   1.992 -19.989  1.00  0.00    -0.221 NA
ATOM      3  C   UNL     1     -51.692   1.750 -21.207  1.00  0.00    +0.117 A 
ATOM      4  C   UNL     1     -50.591   0.962 -21.421  1.00  0.00    +0.049 A 
ATOM      5  C   UNL     1     -50.019   0.406 -20.297  1.00  0.00    +0.078 A 
ATOM      6  N   UNL     1     -50.506   0.645 -19.057  1.00  0.00    -0.213 NA
ENDROOT
BRANCH   1   7
ATOM      7  N   UNL     1     -52.035   1.613 -17.635  1.00  0.00    -0.324 N 
ATOM      8  H   UNL     1     -52.853   1.039 -17.493  1.00  0.00    +0.170 HD
BRANCH   7   9
ATOM      9  C   UNL     1     -51.602   2.391 -16.558  1.00  0.00    +0.041 A 
ATOM     10  N   UNL     1     -49.778   5.205 -12.292  1.00  0.00    -0.192 NA
ATOM     11  C   UNL     1     -50.169   4.605 -13.205  1.00  0.00    +0.099 C 
ATOM     12  C   UNL     1     -50.649   3.859 -14.331  1.00  0.00    +0.052 A 
ATOM     13  C   UNL     1     -51.525   4.447 -15.244  1.00  0.00    +0.021 A 
ATOM     14  C   UNL     1     -50.245   2.538 -14.526  1.00  0.00    +0.021 A 
ATOM     15  C   UNL     1     -51.994   3.716 -16.343  1.00  0.00    +0.027 A 
ATOM     16  C   UNL     1     -50.718   1.817 -15.628  1.00  0.00    +0.027 A 
ENDBRANCH   7   9
ENDBRANCH   1   7
BRANCH   5  17
ATOM     17  C   UNL     1     -48.823  -0.462 -20.356  1.00  0.00    +0.024 A 
ATOM     18  C   UNL     1     -47.662  -0.042 -19.669  1.00  0.00    +0.014 A 
ATOM     19  C   UNL     1     -48.782  -1.683 -21.089  1.00  0.00    +0.048 A 
ATOM     20  C   UNL     1     -46.482  -0.784 -19.706  1.00  0.00    +0.021 A 
ATOM     21  C   UNL     1     -47.577  -2.416 -21.107  1.00  0.00    +0.047 A 
ATOM     22  C   UNL     1     -46.446  -1.967 -20.427  1.00  0.00    +0.043 A 
ATOM     23 Cl   UNL     1     -44.998  -2.897 -20.473  1.00  0.00    -0.084 Cl
BRANCH  19  24
ATOM     24  N   UNL     1     -49.941  -2.173 -21.729  1.00  0.00    -0.366 N 
ATOM     25  C   UNL     1     -50.284  -3.544 -21.262  1.00  0.00    +0.145 C 
ATOM     26  C   UNL     1     -50.071  -1.997 -23.196  1.00  0.00    +0.145 C 
ATOM     27  C   UNL     1     -51.363  -4.152 -22.170  1.00  0.00    +0.181 C 
ATOM     28  C   UNL     1     -49.953  -3.337 -23.936  1.00  0.00    +0.181 C 
ATOM     29  O   UNL     1     -50.943  -4.298 -23.538  1.00  0.00    -0.378 OA
ENDBRANCH  19  24
ENDBRANCH   5  17
TORSDOF 4
ENDMDL
