MODEL 1
REMARK VINA RESULT:    -8.742      0.000      0.000
REMARK INTER + INTRA:         -12.745
REMARK INTER:                 -11.808
REMARK INTRA:                  -0.937
REMARK UNBOUND:                -0.937
REMARK SMILES CC(=O)Nc1cc(C2CC2)ccc1-c1ccnc(Nc2ccc(S(C)(=O)=O)cc2)n1
REMARK SMILES IDX 14 1 15 2 16 3 17 4 18 5 30 6 13 7 5 8 6 9 7 10 12 11 11 12
REMARK SMILES IDX 4 13 2 14 3 15 1 16 8 18 9 19 10 20 19 21 20 23 21 24 29 25
REMARK SMILES IDX 22 26 28 27 23 28 24 29 26 30 27 31 25 32
REMARK H PARENT 4 17 19 22
ROOT
ATOM      1  C   UNL     1     -51.235   0.729 -21.721  1.00  0.00    +0.078 A 
ATOM      2  C   UNL     1     -52.238   1.500 -22.275  1.00  0.00    +0.049 A 
ATOM      3  C   UNL     1     -53.137   2.038 -21.391  1.00  0.00    +0.117 A 
ATOM      4  N   UNL     1     -53.073   1.854 -20.062  1.00  0.00    -0.221 NA
ATOM      5  C   UNL     1     -52.066   1.100 -19.594  1.00  0.00    +0.227 A 
ATOM      6  N   UNL     1     -51.125   0.556 -20.383  1.00  0.00    -0.213 NA
ENDROOT
BRANCH   1   7
ATOM      7  C   UNL     1     -50.156   0.136 -22.536  1.00  0.00    +0.024 A 
ATOM      8  C   UNL     1     -49.101  -0.664 -22.044  1.00  0.00    +0.050 A 
ATOM      9  C   UNL     1     -48.267  -1.353 -22.952  1.00  0.00    +0.030 A 
ATOM     10  C   UNL     1     -48.381  -1.213 -24.345  1.00  0.00    -0.043 A 
ATOM     11  C   UNL     1     -50.254   0.284 -23.938  1.00  0.00    +0.013 A 
ATOM     12  C   UNL     1     -49.390  -0.373 -24.818  1.00  0.00    +0.005 A 
BRANCH   8  13
ATOM     13  N   UNL     1     -48.788  -0.877 -20.676  1.00  0.00    -0.326 N 
ATOM     14  C   UNL     1     -47.688  -0.356 -20.011  1.00  0.00    +0.221 C 
ATOM     15  O   UNL     1     -46.810   0.353 -20.486  1.00  0.00    -0.275 OA
ATOM     16  C   UNL     1     -47.644  -0.792 -18.568  1.00  0.00    +0.114 C 
ATOM     17  H   UNL     1     -49.158  -1.729 -20.270  1.00  0.00    +0.169 HD
ENDBRANCH   8  13
BRANCH  10  18
ATOM     18  C   UNL     1     -47.465  -1.967 -25.279  1.00  0.00    +0.019 C 
ATOM     19  C   UNL     1     -48.032  -3.051 -26.169  1.00  0.00    +0.009 C 
ATOM     20  C   UNL     1     -47.131  -3.419 -25.028  1.00  0.00    +0.009 C 
ENDBRANCH  10  18
ENDBRANCH   1   7
BRANCH   5  21
ATOM     21  N   UNL     1     -51.916   0.824 -18.238  1.00  0.00    -0.324 N 
ATOM     22  H   UNL     1     -52.320  -0.084 -18.061  1.00  0.00    +0.170 HD
BRANCH  21  23
ATOM     23  C   UNL     1     -51.548   1.588 -17.127  1.00  0.00    +0.041 A 
ATOM     24  C   UNL     1     -51.994   2.896 -16.899  1.00  0.00    +0.027 A 
ATOM     25  C   UNL     1     -50.656   1.027 -16.193  1.00  0.00    +0.027 A 
ATOM     26  C   UNL     1     -51.596   3.613 -15.764  1.00  0.00    +0.022 A 
ATOM     27  C   UNL     1     -50.251   1.730 -15.052  1.00  0.00    +0.022 A 
ATOM     28  C   UNL     1     -50.738   3.017 -14.838  1.00  0.00    +0.067 A 
BRANCH  28  29
ATOM     29  S   UNL     1     -50.267   3.919 -13.382  1.00  0.00    +0.175 S 
ATOM     30  O   UNL     1     -51.223   3.592 -12.340  1.00  0.00    -0.224 OA
ATOM     31  O   UNL     1     -50.027   5.296 -13.770  1.00  0.00    -0.224 OA
ATOM     32  C   UNL     1     -48.703   3.201 -12.947  1.00  0.00    +0.163 C 
ENDBRANCH  28  29
ENDBRANCH  21  23
ENDBRANCH   5  21
TORSDOF 6
ENDMDL
