MODEL 1
REMARK VINA RESULT:    -8.977      0.000      0.000
REMARK INTER + INTRA:         -11.792
REMARK INTER:                 -11.601
REMARK INTRA:                  -0.192
REMARK UNBOUND:                -0.192
REMARK SMILES O=C1COCCN1c1cc(C2CC2)ccc1-c1ccnc(Nc2ccc(F)cc2)n1
REMARK SMILES IDX 17 1 18 2 19 3 20 4 21 5 30 6 16 7 8 8 9 9 10 10 15 11 14 12
REMARK SMILES IDX 7 13 1 14 2 15 3 16 4 17 6 18 5 19 11 20 12 21 13 22 22 23
REMARK SMILES IDX 23 25 24 26 29 27 25 28 28 29 26 30 27 31
REMARK H PARENT 22 24
ROOT
ATOM      1  C   UNL     1     -51.281   0.704 -21.753  1.00  0.00    +0.078 A 
ATOM      2  C   UNL     1     -52.307   1.442 -22.304  1.00  0.00    +0.049 A 
ATOM      3  C   UNL     1     -53.195   1.994 -21.416  1.00  0.00    +0.117 A 
ATOM      4  N   UNL     1     -53.098   1.850 -20.084  1.00  0.00    -0.221 NA
ATOM      5  C   UNL     1     -52.069   1.129 -19.619  1.00  0.00    +0.227 A 
ATOM      6  N   UNL     1     -51.141   0.573 -20.413  1.00  0.00    -0.213 NA
ENDROOT
BRANCH   1   7
ATOM      7  C   UNL     1     -50.223   0.077 -22.571  1.00  0.00    +0.024 A 
ATOM      8  C   UNL     1     -49.185  -0.744 -22.068  1.00  0.00    +0.053 A 
ATOM      9  C   UNL     1     -48.316  -1.396 -22.972  1.00  0.00    +0.031 A 
ATOM     10  C   UNL     1     -48.408  -1.254 -24.369  1.00  0.00    -0.043 A 
ATOM     11  C   UNL     1     -50.300   0.237 -23.969  1.00  0.00    +0.013 A 
ATOM     12  C   UNL     1     -49.420  -0.412 -24.841  1.00  0.00    +0.005 A 
BRANCH   8  13
ATOM     13  N   UNL     1     -48.935  -0.937 -20.670  1.00  0.00    -0.307 N 
ATOM     14  O   UNL     1     -50.256  -2.842 -20.457  1.00  0.00    -0.272 OA
ATOM     15  C   UNL     1     -49.431  -2.056 -19.991  1.00  0.00    +0.253 C 
ATOM     16  C   UNL     1     -48.951  -2.225 -18.536  1.00  0.00    +0.260 C 
ATOM     17  O   UNL     1     -47.917  -1.383 -18.050  1.00  0.00    -0.370 OA
ATOM     18  C   UNL     1     -47.989  -0.025 -20.014  1.00  0.00    +0.154 C 
ATOM     19  C   UNL     1     -48.122  -0.047 -18.499  1.00  0.00    +0.183 C 
ENDBRANCH   8  13
BRANCH  10  20
ATOM     20  C   UNL     1     -47.473  -1.936 -25.351  1.00  0.00    +0.019 C 
ATOM     21  C   UNL     1     -47.130  -3.399 -25.204  1.00  0.00    +0.009 C 
ATOM     22  C   UNL     1     -47.974  -2.942 -26.359  1.00  0.00    +0.009 C 
ENDBRANCH  10  20
ENDBRANCH   1   7
BRANCH   5  23
ATOM     23  N   UNL     1     -51.872   0.910 -18.258  1.00  0.00    -0.324 N 
ATOM     24  H   UNL     1     -52.116  -0.049 -18.058  1.00  0.00    +0.170 HD
BRANCH  23  25
ATOM     25  C   UNL     1     -51.588   1.738 -17.168  1.00  0.00    +0.041 A 
ATOM     26  C   UNL     1     -50.758   1.239 -16.147  1.00  0.00    +0.029 A 
ATOM     27  C   UNL     1     -52.050   3.055 -17.045  1.00  0.00    +0.029 A 
ATOM     28  C   UNL     1     -50.416   2.019 -15.039  1.00  0.00    +0.041 A 
ATOM     29  C   UNL     1     -51.712   3.841 -15.938  1.00  0.00    +0.041 A 
ATOM     30  C   UNL     1     -50.899   3.315 -14.945  1.00  0.00    +0.123 A 
ATOM     31  F   UNL     1     -50.575   4.068 -13.886  1.00  0.00    -0.207 F 
ENDBRANCH  23  25
ENDBRANCH   5  23
TORSDOF 5
ENDMDL
