REMARK SMILES Cc1ccc(-c2ccnc(Nc3ccc(S(C)(=O)=O)cc3)n2)c(N2CCOCC2)c1
REMARK SMILES IDX 11 1 10 3 6 4 7 5 22 6 8 7 9 8 5 9 2 10 3 11 30 12 4 13
REMARK SMILES IDX 23 14 1 15 24 16 25 17 29 18 26 19 28 20 27 21 12 22 13 23
REMARK SMILES IDX 21 24 14 25 20 26 15 27 16 28 18 29 19 30 17 31
REMARK H PARENT 11 2
ROOT
ATOM      1  N   UNL     1       2.473   0.220  -0.074  1.00  0.00    -0.324 N 
ATOM      2  H   UNL     1       2.354   0.994   0.563  1.00  0.00    +0.170 HD
ENDROOT
BRANCH   1   3
ATOM      3  C   UNL     1       1.322  -0.562  -0.033  1.00  0.00    +0.227 A 
ATOM      4  C   UNL     1      -0.774  -0.827   0.914  1.00  0.00    +0.078 A 
ATOM      5  C   UNL     1      -0.972  -1.992   0.203  1.00  0.00    +0.049 A 
ATOM      6  N   UNL     1       0.374  -0.116   0.807  1.00  0.00    -0.213 NA
ATOM      7  C   UNL     1       0.045  -2.365  -0.635  1.00  0.00    +0.117 A 
ATOM      8  N   UNL     1       1.188  -1.672  -0.771  1.00  0.00    -0.221 NA
BRANCH   4   9
ATOM      9  C   UNL     1      -1.772  -0.292   1.865  1.00  0.00    +0.024 A 
ATOM     10  C   UNL     1      -3.569   0.702   3.822  1.00  0.00    -0.049 A 
ATOM     11  C   UNL     1      -2.211   0.595   4.109  1.00  0.00    +0.004 A 
ATOM     12  C   UNL     1      -4.030   0.300   2.562  1.00  0.00    +0.030 A 
ATOM     13  C   UNL     1      -1.328   0.114   3.142  1.00  0.00    +0.013 A 
ATOM     14  C   UNL     1      -3.159  -0.193   1.567  1.00  0.00    +0.047 A 
ATOM     15  C   UNL     1      -4.531   1.190   4.865  1.00  0.00    +0.044 C 
BRANCH  14  16
ATOM     16  N   UNL     1      -3.642  -0.526   0.282  1.00  0.00    -0.366 N 
ATOM     17  C   UNL     1      -3.480   0.607  -0.666  1.00  0.00    +0.145 C 
ATOM     18  C   UNL     1      -4.952  -1.209   0.175  1.00  0.00    +0.145 C 
ATOM     19  C   UNL     1      -4.243   0.310  -1.966  1.00  0.00    +0.181 C 
ATOM     20  C   UNL     1      -6.013  -0.298  -0.461  1.00  0.00    +0.181 C 
ATOM     21  O   UNL     1      -5.660   0.159  -1.777  1.00  0.00    -0.378 OA
ENDBRANCH  14  16
ENDBRANCH   4   9
ENDBRANCH   1   3
BRANCH   1  22
ATOM     22  C   UNL     1       3.678   0.146  -0.777  1.00  0.00    +0.041 A 
ATOM     23  C   UNL     1       3.971  -0.843  -1.724  1.00  0.00    +0.027 A 
ATOM     24  C   UNL     1       4.669   1.108  -0.508  1.00  0.00    +0.027 A 
ATOM     25  C   UNL     1       5.199  -0.871  -2.394  1.00  0.00    +0.022 A 
ATOM     26  C   UNL     1       5.900   1.094  -1.171  1.00  0.00    +0.022 A 
ATOM     27  C   UNL     1       6.153   0.108  -2.122  1.00  0.00    +0.067 A 
BRANCH  27  28
ATOM     28  S   UNL     1       7.715   0.089  -2.966  1.00  0.00    +0.175 S 
ATOM     29  O   UNL     1       7.867  -1.208  -3.595  1.00  0.00    -0.224 OA
ATOM     30  O   UNL     1       8.713   0.591  -2.041  1.00  0.00    -0.224 OA
ATOM     31  C   UNL     1       7.495   1.294  -4.250  1.00  0.00    +0.163 C 
ENDBRANCH  27  28
ENDBRANCH   1  22
TORSDOF 5
