MODEL 1
REMARK VINA RESULT:    -9.275      0.000      0.000
REMARK INTER + INTRA:         -12.019
REMARK INTER:                 -11.986
REMARK INTRA:                  -0.032
REMARK UNBOUND:                -0.032
REMARK SMILES N#Cc1ccc(Nc2nccc(-c3ccc(C4CC4)cc3N3CCOCC3=O)n2)cc1
REMARK SMILES IDX 8 1 9 2 10 3 11 4 12 5 29 6 7 7 6 9 1 10 2 11 3 12 4 13
REMARK SMILES IDX 31 14 5 15 30 16 13 17 14 18 21 19 15 20 20 21 16 22 22 23
REMARK SMILES IDX 23 24 27 25 24 26 26 27 28 28 25 29 17 30 18 31 19 32
REMARK H PARENT 7 8
ROOT
ATOM      1  C   UNL     1     -52.469   1.907 -20.419  1.00  0.00    +0.227 A 
ATOM      2  N   UNL     1     -53.493   2.292 -21.194  1.00  0.00    -0.221 NA
ATOM      3  C   UNL     1     -53.466   1.910 -22.482  1.00  0.00    +0.117 A 
ATOM      4  C   UNL     1     -52.455   1.163 -23.029  1.00  0.00    +0.049 A 
ATOM      5  C   UNL     1     -51.432   0.812 -22.173  1.00  0.00    +0.078 A 
ATOM      6  N   UNL     1     -51.451   1.153 -20.864  1.00  0.00    -0.213 NA
ENDROOT
BRANCH   1   7
ATOM      7  N   UNL     1     -52.383   2.258 -19.074  1.00  0.00    -0.324 N 
ATOM      8  H   UNL     1     -53.161   2.867 -18.862  1.00  0.00    +0.170 HD
BRANCH   7   9
ATOM      9  C   UNL     1     -51.582   1.843 -18.008  1.00  0.00    +0.041 A 
ATOM     10  N   UNL     1     -48.527   0.463 -13.741  1.00  0.00    -0.192 NA
ATOM     11  C   UNL     1     -49.182   0.755 -14.653  1.00  0.00    +0.099 C 
ATOM     12  C   UNL     1     -49.989   1.124 -15.780  1.00  0.00    +0.052 A 
ATOM     13  C   UNL     1     -50.874   2.198 -15.692  1.00  0.00    +0.021 A 
ATOM     14  C   UNL     1     -49.892   0.413 -16.977  1.00  0.00    +0.021 A 
ATOM     15  C   UNL     1     -51.657   2.552 -16.797  1.00  0.00    +0.027 A 
ATOM     16  C   UNL     1     -50.680   0.775 -18.078  1.00  0.00    +0.027 A 
ENDBRANCH   7   9
ENDBRANCH   1   7
BRANCH   5  17
ATOM     17  C   UNL     1     -50.288  -0.021 -22.601  1.00  0.00    +0.024 A 
ATOM     18  C   UNL     1     -49.614  -0.758 -21.604  1.00  0.00    +0.013 A 
ATOM     19  C   UNL     1     -49.876  -0.206 -23.942  1.00  0.00    +0.053 A 
ATOM     20  C   UNL     1     -48.597  -1.665 -21.914  1.00  0.00    +0.005 A 
ATOM     21  C   UNL     1     -48.856  -1.139 -24.230  1.00  0.00    +0.031 A 
ATOM     22  C   UNL     1     -48.195  -1.877 -23.235  1.00  0.00    -0.043 A 
BRANCH  19  23
ATOM     23  N   UNL     1     -50.417   0.530 -25.048  1.00  0.00    -0.307 N 
ATOM     24  C   UNL     1     -49.805   1.824 -25.369  1.00  0.00    +0.154 C 
ATOM     25  C   UNL     1     -51.373  -0.034 -25.899  1.00  0.00    +0.253 C 
ATOM     26  C   UNL     1     -50.714   2.692 -26.228  1.00  0.00    +0.183 C 
ATOM     27  C   UNL     1     -51.760   0.813 -27.128  1.00  0.00    +0.260 C 
ATOM     28  O   UNL     1     -51.954  -1.099 -25.685  1.00  0.00    -0.272 OA
ATOM     29  O   UNL     1     -51.010   1.981 -27.426  1.00  0.00    -0.370 OA
ENDBRANCH  19  23
BRANCH  22  30
ATOM     30  C   UNL     1     -47.105  -2.864 -23.580  1.00  0.00    +0.019 C 
ATOM     31  C   UNL     1     -47.419  -4.341 -23.648  1.00  0.00    +0.009 C 
ATOM     32  C   UNL     1     -47.126  -3.585 -24.908  1.00  0.00    +0.009 C 
ENDBRANCH  22  30
ENDBRANCH   5  17
TORSDOF 5
ENDMDL
