REMARK SMILES CC(=O)Nc1cc(C2CC2)ccc1-c1ccnc(Nc2ccc(S(C)(=O)=O)cc2)n1
REMARK SMILES IDX 14 1 15 2 16 3 17 4 18 5 30 6 13 7 5 8 6 9 7 10 12 11 11 12
REMARK SMILES IDX 4 13 2 14 3 15 1 16 8 18 9 19 10 20 19 21 20 23 21 24 29 25
REMARK SMILES IDX 22 26 28 27 23 28 24 29 26 30 27 31 25 32
REMARK H PARENT 4 17 19 22
ROOT
ATOM      1  C   UNL     1      -1.138   0.907  -0.283  1.00  0.00    +0.078 A 
ATOM      2  C   UNL     1      -1.010   2.169   0.261  1.00  0.00    +0.049 A 
ATOM      3  C   UNL     1       0.273   2.614   0.447  1.00  0.00    +0.117 A 
ATOM      4  N   UNL     1       1.362   1.897   0.124  1.00  0.00    -0.221 NA
ATOM      5  C   UNL     1       1.161   0.682  -0.408  1.00  0.00    +0.227 A 
ATOM      6  N   UNL     1      -0.059   0.176  -0.650  1.00  0.00    -0.213 NA
ENDROOT
BRANCH   1   7
ATOM      7  C   UNL     1      -2.453   0.316  -0.602  1.00  0.00    +0.024 A 
ATOM      8  C   UNL     1      -3.573   0.292   0.260  1.00  0.00    +0.050 A 
ATOM      9  C   UNL     1      -4.832  -0.099  -0.246  1.00  0.00    +0.030 A 
ATOM     10  C   UNL     1      -5.015  -0.555  -1.562  1.00  0.00    -0.043 A 
ATOM     11  C   UNL     1      -2.642  -0.159  -1.919  1.00  0.00    +0.013 A 
ATOM     12  C   UNL     1      -3.889  -0.583  -2.386  1.00  0.00    +0.005 A 
BRANCH   8  13
ATOM     13  N   UNL     1      -3.573   0.654   1.632  1.00  0.00    -0.326 N 
ATOM     14  C   UNL     1      -2.564   0.370   2.540  1.00  0.00    +0.221 C 
ATOM     15  O   UNL     1      -1.526  -0.239   2.318  1.00  0.00    -0.275 OA
ATOM     16  C   UNL     1      -2.889   0.881   3.921  1.00  0.00    +0.114 C 
ATOM     17  H   UNL     1      -4.488   0.785   2.050  1.00  0.00    +0.169 HD
ENDBRANCH   8  13
BRANCH  10  18
ATOM     18  C   UNL     1      -6.380  -0.967  -2.059  1.00  0.00    +0.019 C 
ATOM     19  C   UNL     1      -7.089  -2.136  -1.411  1.00  0.00    +0.009 C 
ATOM     20  C   UNL     1      -6.568  -2.264  -2.812  1.00  0.00    +0.009 C 
ENDBRANCH  10  18
ENDBRANCH   1   7
BRANCH   5  21
ATOM     21  N   UNL     1       2.216  -0.157  -0.758  1.00  0.00    -0.324 N 
ATOM     22  H   UNL     1       1.825  -1.048  -1.028  1.00  0.00    +0.170 HD
BRANCH  21  23
ATOM     23  C   UNL     1       3.603  -0.086  -0.607  1.00  0.00    +0.041 A 
ATOM     24  C   UNL     1       4.282   1.058  -0.168  1.00  0.00    +0.027 A 
ATOM     25  C   UNL     1       4.373  -1.217  -0.941  1.00  0.00    +0.027 A 
ATOM     26  C   UNL     1       5.675   1.070  -0.030  1.00  0.00    +0.022 A 
ATOM     27  C   UNL     1       5.766  -1.222  -0.807  1.00  0.00    +0.022 A 
ATOM     28  C   UNL     1       6.408  -0.079  -0.336  1.00  0.00    +0.067 A 
BRANCH  28  29
ATOM     29  S   UNL     1       8.171  -0.068  -0.124  1.00  0.00    +0.175 S 
ATOM     30  O   UNL     1       8.653   1.230  -0.558  1.00  0.00    -0.224 OA
ATOM     31  O   UNL     1       8.697  -1.291  -0.701  1.00  0.00    -0.224 OA
ATOM     32  C   UNL     1       8.370  -0.175   1.637  1.00  0.00    +0.163 C 
ENDBRANCH  28  29
ENDBRANCH  21  23
ENDBRANCH   5  21
TORSDOF 6
