REMARK SMILES Fc1ccc(Nc2nccc(-c3ccc(Cl)cc3N3CCOCC3)n2)cc1
REMARK SMILES IDX 7 1 8 2 9 3 10 4 11 5 25 6 6 7 5 9 2 10 3 11 27 12 4 13
REMARK SMILES IDX 26 14 1 15 12 16 13 17 18 18 14 19 17 20 15 21 16 22 19 23
REMARK SMILES IDX 20 24 24 25 21 26 23 27 22 28
REMARK H PARENT 6 8
ROOT
ATOM      1  C   UNL     1       1.887  -1.786   0.833  1.00  0.00    +0.227 A 
ATOM      2  N   UNL     1       1.419  -2.834   1.529  1.00  0.00    -0.221 NA
ATOM      3  C   UNL     1       0.232  -2.684   2.144  1.00  0.00    +0.117 A 
ATOM      4  C   UNL     1      -0.507  -1.531   2.089  1.00  0.00    +0.049 A 
ATOM      5  C   UNL     1       0.035  -0.503   1.347  1.00  0.00    +0.078 A 
ATOM      6  N   UNL     1       1.232  -0.623   0.728  1.00  0.00    -0.213 NA
ENDROOT
BRANCH   1   7
ATOM      7  N   UNL     1       3.121  -1.994   0.224  1.00  0.00    -0.324 N 
ATOM      8  H   UNL     1       3.432  -2.930   0.439  1.00  0.00    +0.170 HD
BRANCH   7   9
ATOM      9  C   UNL     1       3.938  -1.222  -0.608  1.00  0.00    +0.041 A 
ATOM     10  C   UNL     1       5.684   0.235  -2.259  1.00  0.00    +0.123 A 
ATOM     11  C   UNL     1       4.471   0.790  -1.880  1.00  0.00    +0.041 A 
ATOM     12  C   UNL     1       6.048  -1.032  -1.830  1.00  0.00    +0.041 A 
ATOM     13  C   UNL     1       3.604   0.063  -1.057  1.00  0.00    +0.029 A 
ATOM     14  C   UNL     1       5.178  -1.754  -1.008  1.00  0.00    +0.029 A 
ATOM     15  F   UNL     1       6.514   0.931  -3.047  1.00  0.00    -0.207 F 
ENDBRANCH   7   9
ENDBRANCH   1   7
BRANCH   5  16
ATOM     16  C   UNL     1      -0.629   0.810   1.199  1.00  0.00    +0.024 A 
ATOM     17  C   UNL     1       0.140   1.965   1.472  1.00  0.00    +0.014 A 
ATOM     18  C   UNL     1      -2.005   0.957   0.845  1.00  0.00    +0.048 A 
ATOM     19  C   UNL     1      -0.420   3.239   1.445  1.00  0.00    +0.021 A 
ATOM     20  C   UNL     1      -2.548   2.256   0.856  1.00  0.00    +0.047 A 
ATOM     21  C   UNL     1      -1.766   3.376   1.148  1.00  0.00    +0.043 A 
ATOM     22 Cl   UNL     1      -2.480   4.943   1.127  1.00  0.00    -0.084 Cl
BRANCH  18  23
ATOM     23  N   UNL     1      -2.784  -0.157   0.492  1.00  0.00    -0.366 N 
ATOM     24  C   UNL     1      -2.380  -0.842  -0.765  1.00  0.00    +0.145 C 
ATOM     25  C   UNL     1      -4.250  -0.161   0.691  1.00  0.00    +0.145 C 
ATOM     26  C   UNL     1      -3.207  -0.340  -1.957  1.00  0.00    +0.181 C 
ATOM     27  C   UNL     1      -5.016   0.258  -0.576  1.00  0.00    +0.181 C 
ATOM     28  O   UNL     1      -4.614  -0.507  -1.721  1.00  0.00    -0.378 OA
ENDBRANCH  18  23
ENDBRANCH   5  16
TORSDOF 4
