REMARK SMILES N#Cc1ccc(Nc2nccc(-c3ccc(Cl)cc3N3CCOCC3)n2)cc1
REMARK SMILES IDX 8 1 9 2 10 3 11 4 12 5 26 6 7 7 6 9 1 10 2 11 3 12 4 13
REMARK SMILES IDX 28 14 5 15 27 16 13 17 14 18 19 19 15 20 18 21 16 22 17 23
REMARK SMILES IDX 20 24 21 25 25 26 22 27 24 28 23 29
REMARK H PARENT 7 8
ROOT
ATOM      1  C   UNL     1       1.770   0.195   0.664  1.00  0.00    +0.227 A 
ATOM      2  N   UNL     1       1.672  -0.705   1.651  1.00  0.00    -0.221 NA
ATOM      3  C   UNL     1       0.468  -0.858   2.228  1.00  0.00    +0.117 A 
ATOM      4  C   UNL     1      -0.645  -0.151   1.854  1.00  0.00    +0.049 A 
ATOM      5  C   UNL     1      -0.471   0.747   0.823  1.00  0.00    +0.078 A 
ATOM      6  N   UNL     1       0.734   0.932   0.234  1.00  0.00    -0.213 NA
ENDROOT
BRANCH   1   7
ATOM      7  N   UNL     1       2.969   0.435  -0.002  1.00  0.00    -0.324 N 
ATOM      8  H   UNL     1       2.807   1.140  -0.706  1.00  0.00    +0.170 HD
BRANCH   7   9
ATOM      9  C   UNL     1       4.263  -0.081   0.104  1.00  0.00    +0.041 A 
ATOM     10  N   UNL     1       9.362  -1.925   0.316  1.00  0.00    -0.192 NA
ATOM     11  C   UNL     1       8.271  -1.531   0.272  1.00  0.00    +0.099 C 
ATOM     12  C   UNL     1       6.925  -1.042   0.214  1.00  0.00    +0.052 A 
ATOM     13  C   UNL     1       5.957  -1.537   1.089  1.00  0.00    +0.021 A 
ATOM     14  C   UNL     1       6.569  -0.067  -0.718  1.00  0.00    +0.021 A 
ATOM     15  C   UNL     1       4.642  -1.058   1.030  1.00  0.00    +0.027 A 
ATOM     16  C   UNL     1       5.252   0.405  -0.768  1.00  0.00    +0.027 A 
ENDBRANCH   7   9
ENDBRANCH   1   7
BRANCH   5  17
ATOM     17  C   UNL     1      -1.569   1.591   0.305  1.00  0.00    +0.024 A 
ATOM     18  C   UNL     1      -1.329   2.975   0.151  1.00  0.00    +0.014 A 
ATOM     19  C   UNL     1      -2.858   1.079  -0.021  1.00  0.00    +0.048 A 
ATOM     20  C   UNL     1      -2.323   3.845  -0.295  1.00  0.00    +0.021 A 
ATOM     21  C   UNL     1      -3.845   1.979  -0.473  1.00  0.00    +0.047 A 
ATOM     22  C   UNL     1      -3.577   3.341  -0.603  1.00  0.00    +0.043 A 
ATOM     23 Cl   UNL     1      -4.811   4.403  -1.163  1.00  0.00    -0.084 Cl
BRANCH  19  24
ATOM     24  N   UNL     1      -3.117  -0.307   0.051  1.00  0.00    -0.366 N 
ATOM     25  C   UNL     1      -2.612  -1.020  -1.154  1.00  0.00    +0.145 C 
ATOM     26  C   UNL     1      -4.461  -0.758   0.486  1.00  0.00    +0.145 C 
ATOM     27  C   UNL     1      -3.154  -2.457  -1.179  1.00  0.00    +0.181 C 
ATOM     28  C   UNL     1      -5.245  -1.389  -0.674  1.00  0.00    +0.181 C 
ATOM     29  O   UNL     1      -4.588  -2.525  -1.256  1.00  0.00    -0.378 OA
ENDBRANCH  19  24
ENDBRANCH   5  17
TORSDOF 4
