MODEL 1
REMARK VINA RESULT:    -7.552      0.000      0.000
REMARK INTER + INTRA:         -10.088
REMARK INTER:                  -9.318
REMARK INTRA:                  -0.771
REMARK UNBOUND:                -0.771
REMARK SMILES Fc1ccc(Nc2nccc(-c3ccc(Cl)cc3C3COC3)n2)cc1
REMARK SMILES IDX 7 1 8 2 9 3 10 4 11 5 23 6 6 7 5 9 2 10 3 11 25 12 4 13
REMARK SMILES IDX 24 14 1 15 12 16 13 17 18 18 14 19 17 20 15 21 16 22 19 23
REMARK SMILES IDX 20 24 22 25 21 26
REMARK H PARENT 6 8
ROOT
ATOM      1  C   UNL     1     -51.541   1.369 -18.780  1.00  0.00    +0.227 A 
ATOM      2  N   UNL     1     -52.139   2.002 -19.798  1.00  0.00    -0.221 NA
ATOM      3  C   UNL     1     -51.632   1.817 -21.030  1.00  0.00    +0.117 A 
ATOM      4  C   UNL     1     -50.546   1.023 -21.288  1.00  0.00    +0.049 A 
ATOM      5  C   UNL     1     -49.988   0.402 -20.191  1.00  0.00    +0.076 A 
ATOM      6  N   UNL     1     -50.476   0.567 -18.941  1.00  0.00    -0.213 NA
ENDROOT
BRANCH   1   7
ATOM      7  N   UNL     1     -51.978   1.500 -17.466  1.00  0.00    -0.324 N 
ATOM      8  H   UNL     1     -52.750   0.868 -17.314  1.00  0.00    +0.170 HD
BRANCH   7   9
ATOM      9  C   UNL     1     -51.577   2.283 -16.379  1.00  0.00    +0.041 A 
ATOM     10  C   UNL     1     -50.844   3.959 -14.244  1.00  0.00    +0.123 A 
ATOM     11  C   UNL     1     -50.454   2.627 -14.240  1.00  0.00    +0.041 A 
ATOM     12  C   UNL     1     -51.595   4.473 -15.290  1.00  0.00    +0.041 A 
ATOM     13  C   UNL     1     -50.821   1.796 -15.304  1.00  0.00    +0.029 A 
ATOM     14  C   UNL     1     -51.958   3.637 -16.350  1.00  0.00    +0.029 A 
ATOM     15  F   UNL     1     -50.492   4.755 -13.227  1.00  0.00    -0.207 F 
ENDBRANCH   7   9
ENDBRANCH   1   7
BRANCH   5  16
ATOM     16  C   UNL     1     -48.818  -0.486 -20.305  1.00  0.00    +0.004 A 
ATOM     17  C   UNL     1     -47.542   0.027 -19.979  1.00  0.00    +0.012 A 
ATOM     18  C   UNL     1     -48.962  -1.848 -20.709  1.00  0.00    -0.029 A 
ATOM     19  C   UNL     1     -46.404  -0.775 -20.034  1.00  0.00    +0.021 A 
ATOM     20  C   UNL     1     -47.781  -2.631 -20.733  1.00  0.00    +0.025 A 
ATOM     21  C   UNL     1     -46.529  -2.104 -20.407  1.00  0.00    +0.041 A 
ATOM     22 Cl   UNL     1     -45.136  -3.111 -20.463  1.00  0.00    -0.084 Cl
BRANCH  18  23
ATOM     23  C   UNL     1     -50.390  -2.474 -21.096  1.00  0.00    +0.072 C 
ATOM     24  C   UNL     1     -50.874  -2.535 -22.554  1.00  0.00    +0.170 C 
ATOM     25  C   UNL     1     -50.490  -4.007 -21.161  1.00  0.00    +0.170 C 
ATOM     26  O   UNL     1     -50.813  -3.978 -22.571  1.00  0.00    -0.380 OA
ENDBRANCH  18  23
ENDBRANCH   5  16
TORSDOF 4
ENDMDL
