MODEL 1
REMARK VINA RESULT:    -7.987      0.000      0.000
REMARK INTER + INTRA:         -11.202
REMARK INTER:                 -10.322
REMARK INTRA:                  -0.880
REMARK UNBOUND:                -0.880
REMARK SMILES CS(=O)(=O)N1CCN(c2cc(Cl)ccc2-c2ccnc(Nc3ccc(F)cc3)n2)CC1
REMARK SMILES IDX 9 1 10 2 11 3 12 4 13 5 14 6 15 7 8 8 5 9 6 10 31 11 7 12
REMARK SMILES IDX 30 13 2 14 3 15 4 16 1 17 16 18 17 19 29 20 18 21 20 22
REMARK SMILES IDX 19 23 21 24 22 26 23 27 28 28 24 29 27 30 25 31 26 32
REMARK H PARENT 21 25
ROOT
ATOM      1  C   UNL     1     -50.486  -0.446 -20.914  1.00  0.00    +0.048 A 
ATOM      2  C   UNL     1     -51.539   0.357 -21.391  1.00  0.00    +0.047 A 
ATOM      3  C   UNL     1     -52.137   1.337 -20.594  1.00  0.00    +0.043 A 
ATOM      4 Cl   UNL     1     -53.403   2.306 -21.245  1.00  0.00    -0.084 Cl
ATOM      5  C   UNL     1     -51.715   1.541 -19.292  1.00  0.00    +0.021 A 
ATOM      6  C   UNL     1     -50.700   0.739 -18.777  1.00  0.00    +0.014 A 
ATOM      7  C   UNL     1     -50.085  -0.270 -19.553  1.00  0.00    +0.024 A 
ENDROOT
BRANCH   1   8
ATOM      8  N   UNL     1     -49.853  -1.382 -21.743  1.00  0.00    -0.368 N 
ATOM      9  N   UNL     1     -50.264  -1.912 -24.575  1.00  0.00    -0.199 NA
ATOM     10  C   UNL     1     -49.649  -0.629 -24.124  1.00  0.00    +0.123 C 
ATOM     11  C   UNL     1     -51.219  -2.463 -23.573  1.00  0.00    +0.123 C 
ATOM     12  C   UNL     1     -48.934  -0.826 -22.774  1.00  0.00    +0.133 C 
ATOM     13  C   UNL     1     -50.545  -2.613 -22.191  1.00  0.00    +0.133 C 
BRANCH   9  14
ATOM     14  S   UNL     1     -50.691  -2.036 -26.202  1.00  0.00    +0.211 S 
ATOM     15  O   UNL     1     -52.020  -2.602 -26.269  1.00  0.00    -0.213 OA
ATOM     16  O   UNL     1     -50.381  -0.772 -26.835  1.00  0.00    -0.213 OA
ATOM     17  C   UNL     1     -49.548  -3.253 -26.826  1.00  0.00    +0.176 C 
ENDBRANCH   9  14
ENDBRANCH   1   8
BRANCH   7  18
ATOM     18  C   UNL     1     -49.090  -1.135 -18.882  1.00  0.00    +0.078 A 
ATOM     19  C   UNL     1     -47.899  -0.650 -18.387  1.00  0.00    +0.049 A 
ATOM     20  N   UNL     1     -49.416  -2.448 -18.808  1.00  0.00    -0.213 NA
ATOM     21  C   UNL     1     -47.077  -1.573 -17.797  1.00  0.00    +0.117 A 
ATOM     22  C   UNL     1     -48.548  -3.282 -18.213  1.00  0.00    +0.227 A 
ATOM     23  N   UNL     1     -47.379  -2.878 -17.698  1.00  0.00    -0.221 NA
BRANCH  22  24
ATOM     24  N   UNL     1     -48.957  -4.611 -18.168  1.00  0.00    -0.324 N 
ATOM     25  H   UNL     1     -49.762  -4.681 -17.562  1.00  0.00    +0.170 HD
BRANCH  24  26
ATOM     26  C   UNL     1     -48.499  -5.794 -18.757  1.00  0.00    +0.041 A 
ATOM     27  C   UNL     1     -47.863  -6.823 -18.051  1.00  0.00    +0.029 A 
ATOM     28  C   UNL     1     -48.684  -5.967 -20.142  1.00  0.00    +0.029 A 
ATOM     29  C   UNL     1     -47.426  -7.983 -18.699  1.00  0.00    +0.041 A 
ATOM     30  C   UNL     1     -48.250  -7.125 -20.794  1.00  0.00    +0.041 A 
ATOM     31  C   UNL     1     -47.623  -8.123 -20.064  1.00  0.00    +0.123 A 
ATOM     32  F   UNL     1     -47.205  -9.234 -20.684  1.00  0.00    -0.207 F 
ENDBRANCH  24  26
ENDBRANCH  22  24
ENDBRANCH   7  18
TORSDOF 5
ENDMDL
