REMARK SMILES N#Cc1ccc(Nc2nccc(-c3ccc(C4CC4)cc3N3CCOCC3=O)n2)cc1
REMARK SMILES IDX 8 1 9 2 10 3 11 4 12 5 29 6 7 7 6 9 1 10 2 11 3 12 4 13
REMARK SMILES IDX 31 14 5 15 30 16 13 17 14 18 21 19 15 20 20 21 16 22 22 23
REMARK SMILES IDX 23 24 27 25 24 26 26 27 28 28 25 29 17 30 18 31 19 32
REMARK H PARENT 7 8
ROOT
ATOM      1  C   UNL     1       2.384  -0.509  -0.571  1.00  0.00    +0.227 A 
ATOM      2  N   UNL     1       2.343  -1.612  -1.332  1.00  0.00    -0.221 NA
ATOM      3  C   UNL     1       1.165  -1.925  -1.897  1.00  0.00    +0.117 A 
ATOM      4  C   UNL     1       0.024  -1.183  -1.730  1.00  0.00    +0.049 A 
ATOM      5  C   UNL     1       0.141  -0.068  -0.927  1.00  0.00    +0.078 A 
ATOM      6  N   UNL     1       1.323   0.289  -0.374  1.00  0.00    -0.213 NA
ENDROOT
BRANCH   1   7
ATOM      7  N   UNL     1       3.546  -0.098   0.077  1.00  0.00    -0.324 N 
ATOM      8  H   UNL     1       3.314   0.695   0.658  1.00  0.00    +0.170 HD
BRANCH   7   9
ATOM      9  C   UNL     1       4.836  -0.622   0.189  1.00  0.00    +0.041 A 
ATOM     10  N   UNL     1       9.924  -2.425   0.740  1.00  0.00    -0.192 NA
ATOM     11  C   UNL     1       8.835  -2.042   0.623  1.00  0.00    +0.099 C 
ATOM     12  C   UNL     1       7.492  -1.562   0.478  1.00  0.00    +0.052 A 
ATOM     13  C   UNL     1       7.073  -0.421   1.162  1.00  0.00    +0.021 A 
ATOM     14  C   UNL     1       6.592  -2.230  -0.354  1.00  0.00    +0.021 A 
ATOM     15  C   UNL     1       5.760   0.042   1.013  1.00  0.00    +0.027 A 
ATOM     16  C   UNL     1       5.280  -1.759  -0.496  1.00  0.00    +0.027 A 
ENDBRANCH   7   9
ENDBRANCH   1   7
BRANCH   5  17
ATOM     17  C   UNL     1      -0.987   0.854  -0.677  1.00  0.00    +0.024 A 
ATOM     18  C   UNL     1      -0.773   2.225  -0.931  1.00  0.00    +0.013 A 
ATOM     19  C   UNL     1      -2.289   0.456  -0.290  1.00  0.00    +0.053 A 
ATOM     20  C   UNL     1      -1.803   3.165  -0.841  1.00  0.00    +0.005 A 
ATOM     21  C   UNL     1      -3.316   1.423  -0.220  1.00  0.00    +0.031 A 
ATOM     22  C   UNL     1      -3.099   2.785  -0.483  1.00  0.00    -0.043 A 
BRANCH  19  23
ATOM     23  N   UNL     1      -2.634  -0.888   0.073  1.00  0.00    -0.307 N 
ATOM     24  C   UNL     1      -3.733  -1.530  -0.657  1.00  0.00    +0.154 C 
ATOM     25  C   UNL     1      -1.847  -1.625   0.964  1.00  0.00    +0.253 C 
ATOM     26  C   UNL     1      -4.294  -2.732   0.090  1.00  0.00    +0.183 C 
ATOM     27  C   UNL     1      -2.252  -3.101   1.154  1.00  0.00    +0.260 C 
ATOM     28  O   UNL     1      -0.929  -1.154   1.636  1.00  0.00    -0.272 OA
ATOM     29  O   UNL     1      -3.236  -3.663   0.298  1.00  0.00    -0.370 OA
ENDBRANCH  19  23
BRANCH  22  30
ATOM     30  C   UNL     1      -4.221   3.792  -0.395  1.00  0.00    +0.019 C 
ATOM     31  C   UNL     1      -5.012   3.931   0.885  1.00  0.00    +0.009 C 
ATOM     32  C   UNL     1      -4.072   5.021   0.471  1.00  0.00    +0.009 C 
ENDBRANCH  22  30
ENDBRANCH   5  17
TORSDOF 5
