REMARK SMILES Cc1ccc(-c2ccnc(Nc3ccc(C#N)cc3)n2)c(N2CCOCC2)c1
REMARK SMILES IDX 6 1 7 2 8 3 9 4 10 5 20 6 5 7 2 8 3 9 28 10 4 11 21 12 1 13
REMARK SMILES IDX 22 14 23 15 27 16 24 17 26 18 25 19 11 20 12 22 13 23 19 24
REMARK SMILES IDX 14 25 18 26 15 27 16 28 17 29
REMARK H PARENT 11 21
ROOT
ATOM      1  C   UNL     1      -0.233  -0.117   1.016  1.00  0.00    +0.078 A 
ATOM      2  C   UNL     1      -0.411   1.120   1.597  1.00  0.00    +0.049 A 
ATOM      3  C   UNL     1       0.688   1.938   1.612  1.00  0.00    +0.117 A 
ATOM      4  N   UNL     1       1.882   1.583   1.107  1.00  0.00    -0.221 NA
ATOM      5  C   UNL     1       1.984   0.360   0.569  1.00  0.00    +0.227 A 
ATOM      6  N   UNL     1       0.962  -0.507   0.511  1.00  0.00    -0.213 NA
ENDROOT
BRANCH   1   7
ATOM      7  C   UNL     1      -1.319  -1.112   0.936  1.00  0.00    +0.024 A 
ATOM      8  C   UNL     1      -3.339  -3.088   1.040  1.00  0.00    -0.049 A 
ATOM      9  C   UNL     1      -2.075  -3.359   1.556  1.00  0.00    +0.004 A 
ATOM     10  C   UNL     1      -3.590  -1.828   0.474  1.00  0.00    +0.030 A 
ATOM     11  C   UNL     1      -1.081  -2.385   1.500  1.00  0.00    +0.013 A 
ATOM     12  C   UNL     1      -2.599  -0.828   0.380  1.00  0.00    +0.047 A 
ATOM     13  C   UNL     1      -4.434  -4.110   1.129  1.00  0.00    +0.044 C 
BRANCH  12  14
ATOM     14  N   UNL     1      -2.868   0.396  -0.255  1.00  0.00    -0.366 N 
ATOM     15  C   UNL     1      -2.027   0.702  -1.443  1.00  0.00    +0.145 C 
ATOM     16  C   UNL     1      -4.249   0.902  -0.346  1.00  0.00    +0.145 C 
ATOM     17  C   UNL     1      -2.895   1.108  -2.646  1.00  0.00    +0.181 C 
ATOM     18  C   UNL     1      -4.235   2.276  -1.034  1.00  0.00    +0.181 C 
ATOM     19  O   UNL     1      -3.751   2.232  -2.387  1.00  0.00    -0.378 OA
ENDBRANCH  12  14
ENDBRANCH   1   7
BRANCH   5  20
ATOM     20  N   UNL     1       3.174  -0.110   0.020  1.00  0.00    -0.324 N 
ATOM     21  H   UNL     1       3.018  -1.047  -0.322  1.00  0.00    +0.170 HD
BRANCH  20  22
ATOM     22  C   UNL     1       4.455   0.425  -0.136  1.00  0.00    +0.041 A 
ATOM     23  C   UNL     1       4.824   1.705   0.292  1.00  0.00    +0.027 A 
ATOM     24  C   UNL     1       5.439  -0.361  -0.760  1.00  0.00    +0.027 A 
ATOM     25  C   UNL     1       6.127   2.188   0.107  1.00  0.00    +0.021 A 
ATOM     26  C   UNL     1       6.742   0.113  -0.949  1.00  0.00    +0.021 A 
ATOM     27  C   UNL     1       7.090   1.392  -0.515  1.00  0.00    +0.052 A 
ATOM     28  C   UNL     1       8.422   1.884  -0.705  1.00  0.00    +0.099 C 
ATOM     29  N   UNL     1       9.502   2.279  -0.861  1.00  0.00    -0.192 NA
ENDBRANCH  20  22
ENDBRANCH   5  20
TORSDOF 4
