MODEL 1
REMARK VINA RESULT:    -8.017      0.000      0.000
REMARK INTER + INTRA:         -11.692
REMARK INTER:                 -10.360
REMARK INTRA:                  -1.332
REMARK UNBOUND:                -1.332
REMARK SMILES O=C1COCCN1c1cc(C2CC2)ccc1-c1ccnc(Nc2ccc(F)cc2)n1
REMARK SMILES IDX 17 1 18 2 19 3 20 4 21 5 30 6 16 7 8 8 9 9 10 10 15 11 14 12
REMARK SMILES IDX 7 13 1 14 2 15 3 16 4 17 6 18 5 19 11 20 12 21 13 22 22 23
REMARK SMILES IDX 23 25 24 26 29 27 25 28 28 29 26 30 27 31
REMARK H PARENT 22 24
ROOT
ATOM      1  C   UNL     1     -50.919   0.390 -23.001  1.00  0.00    +0.078 A 
ATOM      2  C   UNL     1     -50.867   1.470 -23.855  1.00  0.00    +0.049 A 
ATOM      3  C   UNL     1     -50.737   1.176 -25.188  1.00  0.00    +0.117 A 
ATOM      4  N   UNL     1     -50.669  -0.076 -25.669  1.00  0.00    -0.221 NA
ATOM      5  C   UNL     1     -50.738  -1.078 -24.781  1.00  0.00    +0.227 A 
ATOM      6  N   UNL     1     -50.888  -0.883 -23.462  1.00  0.00    -0.213 NA
ENDROOT
BRANCH   1   7
ATOM      7  C   UNL     1     -51.094   0.536 -21.541  1.00  0.00    +0.024 A 
ATOM      8  C   UNL     1     -50.191   0.059 -20.561  1.00  0.00    +0.053 A 
ATOM      9  C   UNL     1     -50.405   0.385 -19.203  1.00  0.00    +0.031 A 
ATOM     10  C   UNL     1     -51.498   1.150 -18.755  1.00  0.00    -0.043 A 
ATOM     11  C   UNL     1     -52.202   1.283 -21.090  1.00  0.00    +0.013 A 
ATOM     12  C   UNL     1     -52.395   1.582 -19.738  1.00  0.00    +0.005 A 
BRANCH   8  13
ATOM     13  N   UNL     1     -49.066  -0.777 -20.861  1.00  0.00    -0.307 N 
ATOM     14  O   UNL     1     -50.212  -2.793 -20.651  1.00  0.00    -0.272 OA
ATOM     15  C   UNL     1     -49.204  -2.166 -20.975  1.00  0.00    +0.253 C 
ATOM     16  C   UNL     1     -47.954  -2.926 -21.461  1.00  0.00    +0.260 C 
ATOM     17  O   UNL     1     -46.841  -2.186 -21.939  1.00  0.00    -0.370 OA
ATOM     18  C   UNL     1     -47.805  -0.119 -21.226  1.00  0.00    +0.154 C 
ATOM     19  C   UNL     1     -46.611  -1.054 -21.105  1.00  0.00    +0.183 C 
ENDBRANCH   8  13
BRANCH  10  20
ATOM     20  C   UNL     1     -51.749   1.496 -17.299  1.00  0.00    +0.019 C 
ATOM     21  C   UNL     1     -50.601   1.813 -16.371  1.00  0.00    +0.009 C 
ATOM     22  C   UNL     1     -51.560   2.897 -16.770  1.00  0.00    +0.009 C 
ENDBRANCH  10  20
ENDBRANCH   1   7
BRANCH   5  23
ATOM     23  N   UNL     1     -50.672  -2.415 -25.164  1.00  0.00    -0.324 N 
ATOM     24  H   UNL     1     -51.491  -2.622 -25.715  1.00  0.00    +0.170 HD
BRANCH  23  25
ATOM     25  C   UNL     1     -49.843  -3.488 -24.821  1.00  0.00    +0.041 A 
ATOM     26  C   UNL     1     -48.497  -3.450 -25.229  1.00  0.00    +0.029 A 
ATOM     27  C   UNL     1     -50.262  -4.586 -24.059  1.00  0.00    +0.029 A 
ATOM     28  C   UNL     1     -47.608  -4.478 -24.902  1.00  0.00    +0.041 A 
ATOM     29  C   UNL     1     -49.377  -5.618 -23.730  1.00  0.00    +0.041 A 
ATOM     30  C   UNL     1     -48.058  -5.555 -24.155  1.00  0.00    +0.123 A 
ATOM     31  F   UNL     1     -47.212  -6.543 -23.839  1.00  0.00    -0.207 F 
ENDBRANCH  23  25
ENDBRANCH   5  23
TORSDOF 5
ENDMDL
