MODEL 1
REMARK VINA RESULT:    -7.749      0.000      0.000
REMARK INTER + INTRA:         -11.126
REMARK INTER:                 -10.015
REMARK INTRA:                  -1.111
REMARK UNBOUND:                -1.111
REMARK SMILES CS(=O)(=O)c1ccc(Nc2nccc(-c3ccc(Cl)cc3N3CCOCC3)n2)cc1
REMARK SMILES IDX 9 1 8 3 5 4 6 5 30 6 7 7 29 8 2 9 3 10 4 11 1 12 10 13 11 14
REMARK SMILES IDX 28 15 12 16 14 17 13 18 15 19 16 20 21 21 17 22 20 23 18 24
REMARK SMILES IDX 19 25 22 26 23 27 27 28 24 29 26 30 25 31
REMARK H PARENT 9 2
ROOT
ATOM      1  N   UNL     1     -51.434   0.860 -23.026  1.00  0.00    -0.324 N 
ATOM      2  H   UNL     1     -51.997   1.567 -23.475  1.00  0.00    +0.170 HD
ENDROOT
BRANCH   1   3
ATOM      3  C   UNL     1     -50.801  -0.070 -23.859  1.00  0.00    +0.041 A 
ATOM      4  C   UNL     1     -49.381  -1.860 -25.505  1.00  0.00    +0.067 A 
ATOM      5  C   UNL     1     -49.008  -0.519 -25.465  1.00  0.00    +0.022 A 
ATOM      6  C   UNL     1     -50.459  -2.318 -24.747  1.00  0.00    +0.022 A 
ATOM      7  C   UNL     1     -49.712   0.362 -24.638  1.00  0.00    +0.027 A 
ATOM      8  C   UNL     1     -51.152  -1.424 -23.923  1.00  0.00    +0.027 A 
BRANCH   4   9
ATOM      9  S   UNL     1     -48.502  -2.994 -26.550  1.00  0.00    +0.175 S 
ATOM     10  O   UNL     1     -49.401  -3.391 -27.618  1.00  0.00    -0.224 OA
ATOM     11  O   UNL     1     -47.207  -2.410 -26.848  1.00  0.00    -0.224 OA
ATOM     12  C   UNL     1     -48.242  -4.397 -25.497  1.00  0.00    +0.163 C 
ENDBRANCH   4   9
ENDBRANCH   1   3
BRANCH   1  13
ATOM     13  C   UNL     1     -51.633   0.944 -21.650  1.00  0.00    +0.227 A 
ATOM     14  N   UNL     1     -52.739   1.489 -21.127  1.00  0.00    -0.221 NA
ATOM     15  N   UNL     1     -50.641   0.430 -20.905  1.00  0.00    -0.213 NA
ATOM     16  C   UNL     1     -52.836   1.525 -19.787  1.00  0.00    +0.117 A 
ATOM     17  C   UNL     1     -50.771   0.471 -19.557  1.00  0.00    +0.078 A 
ATOM     18  C   UNL     1     -51.874   1.032 -18.948  1.00  0.00    +0.049 A 
BRANCH  17  19
ATOM     19  C   UNL     1     -49.638  -0.081 -18.784  1.00  0.00    +0.024 A 
ATOM     20  C   UNL     1     -49.118   0.702 -17.728  1.00  0.00    +0.014 A 
ATOM     21  C   UNL     1     -49.091  -1.378 -19.018  1.00  0.00    +0.048 A 
ATOM     22  C   UNL     1     -48.110   0.226 -16.892  1.00  0.00    +0.021 A 
ATOM     23  C   UNL     1     -48.088  -1.841 -18.144  1.00  0.00    +0.047 A 
ATOM     24  C   UNL     1     -47.607  -1.049 -17.100  1.00  0.00    +0.043 A 
ATOM     25 Cl   UNL     1     -46.370  -1.655 -16.068  1.00  0.00    -0.084 Cl
BRANCH  21  26
ATOM     26  N   UNL     1     -49.514  -2.157 -20.105  1.00  0.00    -0.366 N 
ATOM     27  C   UNL     1     -48.589  -2.174 -21.270  1.00  0.00    +0.145 C 
ATOM     28  C   UNL     1     -50.233  -3.425 -19.882  1.00  0.00    +0.145 C 
ATOM     29  C   UNL     1     -48.286  -3.617 -21.710  1.00  0.00    +0.181 C 
ATOM     30  C   UNL     1     -50.604  -4.037 -21.244  1.00  0.00    +0.181 C 
ATOM     31  O   UNL     1     -49.464  -4.362 -22.058  1.00  0.00    -0.378 OA
ENDBRANCH  21  26
ENDBRANCH  17  19
ENDBRANCH   1  13
TORSDOF 5
ENDMDL
