MODEL 1
REMARK VINA RESULT:    -9.430      0.000      0.000
REMARK INTER + INTRA:         -12.181
REMARK INTER:                 -12.187
REMARK INTRA:                   0.006
REMARK UNBOUND:                 0.006
REMARK SMILES N#Cc1ccc(Nc2nccc(-c3ccc(C4CC4)cc3N3CCOCC3=O)n2)cc1
REMARK SMILES IDX 8 1 9 2 10 3 11 4 12 5 29 6 7 7 6 9 1 10 2 11 3 12 4 13
REMARK SMILES IDX 31 14 5 15 30 16 13 17 14 18 21 19 15 20 20 21 16 22 22 23
REMARK SMILES IDX 23 24 27 25 24 26 26 27 28 28 25 29 17 30 18 31 19 32
REMARK H PARENT 7 8
ROOT
ATOM      1  C   UNL     1     -52.073   1.271 -19.214  1.00  0.00    +0.227 A 
ATOM      2  N   UNL     1     -53.044   2.019 -19.755  1.00  0.00    -0.221 NA
ATOM      3  C   UNL     1     -53.093   2.086 -21.096  1.00  0.00    +0.117 A 
ATOM      4  C   UNL     1     -52.208   1.439 -21.920  1.00  0.00    +0.049 A 
ATOM      5  C   UNL     1     -51.231   0.696 -21.291  1.00  0.00    +0.078 A 
ATOM      6  N   UNL     1     -51.180   0.584 -19.943  1.00  0.00    -0.213 NA
ENDROOT
BRANCH   1   7
ATOM      7  N   UNL     1     -51.916   1.143 -17.836  1.00  0.00    -0.324 N 
ATOM      8  H   UNL     1     -52.016   0.166 -17.601  1.00  0.00    +0.170 HD
BRANCH   7   9
ATOM      9  C   UNL     1     -51.527   2.013 -16.815  1.00  0.00    +0.041 A 
ATOM     10  N   UNL     1     -49.934   5.179 -12.706  1.00  0.00    -0.192 NA
ATOM     11  C   UNL     1     -50.274   4.504 -13.587  1.00  0.00    +0.099 C 
ATOM     12  C   UNL     1     -50.694   3.664 -14.670  1.00  0.00    +0.052 A 
ATOM     13  C   UNL     1     -50.299   2.328 -14.721  1.00  0.00    +0.021 A 
ATOM     14  C   UNL     1     -51.509   4.176 -15.681  1.00  0.00    +0.021 A 
ATOM     15  C   UNL     1     -50.716   1.515 -15.782  1.00  0.00    +0.027 A 
ATOM     16  C   UNL     1     -51.921   3.354 -16.739  1.00  0.00    +0.027 A 
ENDBRANCH   7   9
ENDBRANCH   1   7
BRANCH   5  17
ATOM     17  C   UNL     1     -50.224  -0.089 -22.036  1.00  0.00    +0.024 A 
ATOM     18  C   UNL     1     -50.261  -0.020 -23.445  1.00  0.00    +0.013 A 
ATOM     19  C   UNL     1     -49.173  -0.829 -21.445  1.00  0.00    +0.053 A 
ATOM     20  C   UNL     1     -49.287  -0.626 -24.243  1.00  0.00    +0.005 A 
ATOM     21  C   UNL     1     -48.193  -1.421 -22.273  1.00  0.00    +0.031 A 
ATOM     22  C   UNL     1     -48.230  -1.341 -23.674  1.00  0.00    -0.043 A 
BRANCH  19  23
ATOM     23  N   UNL     1     -49.052  -1.049 -20.033  1.00  0.00    -0.307 N 
ATOM     24  C   UNL     1     -48.309  -0.055 -19.250  1.00  0.00    +0.154 C 
ATOM     25  C   UNL     1     -49.758  -2.074 -19.394  1.00  0.00    +0.253 C 
ATOM     26  C   UNL     1     -47.866  -0.602 -17.900  1.00  0.00    +0.183 C 
ATOM     27  C   UNL     1     -49.647  -2.106 -17.856  1.00  0.00    +0.260 C 
ATOM     28  O   UNL     1     -50.378  -2.962 -19.979  1.00  0.00    -0.272 OA
ATOM     29  O   UNL     1     -49.025  -1.020 -17.185  1.00  0.00    -0.370 OA
ENDBRANCH  19  23
BRANCH  22  30
ATOM     30  C   UNL     1     -47.166  -1.989 -24.528  1.00  0.00    +0.019 C 
ATOM     31  C   UNL     1     -47.363  -3.396 -25.041  1.00  0.00    +0.009 C 
ATOM     32  C   UNL     1     -47.420  -2.243 -25.995  1.00  0.00    +0.009 C 
ENDBRANCH  22  30
ENDBRANCH   5  17
TORSDOF 5
ENDMDL
