MODEL 1
REMARK VINA RESULT:    -7.979      0.000      0.000
REMARK INTER + INTRA:         -11.362
REMARK INTER:                 -10.311
REMARK INTRA:                  -1.051
REMARK UNBOUND:                -1.051
REMARK SMILES Cc1ccc(-c2ccnc(Nc3ccc(S(C)(=O)=O)cc3)n2)c(N2CCOCC2)c1
REMARK SMILES IDX 11 1 10 3 6 4 7 5 22 6 8 7 9 8 5 9 2 10 3 11 30 12 4 13
REMARK SMILES IDX 23 14 1 15 24 16 25 17 29 18 26 19 28 20 27 21 12 22 13 23
REMARK SMILES IDX 21 24 14 25 20 26 15 27 16 28 18 29 19 30 17 31
REMARK H PARENT 11 2
ROOT
ATOM      1  N   UNL     1     -50.939  -2.496 -25.392  1.00  0.00    -0.324 N 
ATOM      2  H   UNL     1     -51.595  -2.657 -26.142  1.00  0.00    +0.170 HD
ENDROOT
BRANCH   1   3
ATOM      3  C   UNL     1     -50.942  -1.136 -25.093  1.00  0.00    +0.227 A 
ATOM      4  C   UNL     1     -51.029   0.448 -23.407  1.00  0.00    +0.078 A 
ATOM      5  C   UNL     1     -51.001   1.469 -24.335  1.00  0.00    +0.049 A 
ATOM      6  N   UNL     1     -51.010  -0.853 -23.782  1.00  0.00    -0.213 NA
ATOM      7  C   UNL     1     -50.923   1.086 -25.647  1.00  0.00    +0.117 A 
ATOM      8  N   UNL     1     -50.889  -0.197 -26.047  1.00  0.00    -0.221 NA
BRANCH   4   9
ATOM      9  C   UNL     1     -51.119   0.694 -21.952  1.00  0.00    +0.024 A 
ATOM     10  C   UNL     1     -51.405   1.300 -19.196  1.00  0.00    -0.049 A 
ATOM     11  C   UNL     1     -52.349   1.753 -20.113  1.00  0.00    +0.004 A 
ATOM     12  C   UNL     1     -50.312   0.556 -19.657  1.00  0.00    +0.030 A 
ATOM     13  C   UNL     1     -52.210   1.446 -21.467  1.00  0.00    +0.013 A 
ATOM     14  C   UNL     1     -50.147   0.234 -21.022  1.00  0.00    +0.047 A 
ATOM     15  C   UNL     1     -51.529   1.650 -17.742  1.00  0.00    +0.044 C 
BRANCH  14  16
ATOM     16  N   UNL     1     -49.072  -0.577 -21.449  1.00  0.00    -0.366 N 
ATOM     17  C   UNL     1     -49.330  -2.012 -21.161  1.00  0.00    +0.145 C 
ATOM     18  C   UNL     1     -47.691  -0.145 -21.131  1.00  0.00    +0.145 C 
ATOM     19  C   UNL     1     -48.049  -2.827 -21.395  1.00  0.00    +0.181 C 
ATOM     20  C   UNL     1     -47.031  -1.077 -20.104  1.00  0.00    +0.181 C 
ATOM     21  O   UNL     1     -46.962  -2.446 -20.535  1.00  0.00    -0.378 OA
ENDBRANCH  14  16
ENDBRANCH   4   9
ENDBRANCH   1   3
BRANCH   1  22
ATOM     22  C   UNL     1     -50.251  -3.603 -24.891  1.00  0.00    +0.041 A 
ATOM     23  C   UNL     1     -50.776  -4.485 -23.939  1.00  0.00    +0.027 A 
ATOM     24  C   UNL     1     -48.943  -3.842 -25.352  1.00  0.00    +0.027 A 
ATOM     25  C   UNL     1     -50.038  -5.576 -23.468  1.00  0.00    +0.022 A 
ATOM     26  C   UNL     1     -48.193  -4.929 -24.892  1.00  0.00    +0.022 A 
ATOM     27  C   UNL     1     -48.752  -5.799 -23.958  1.00  0.00    +0.067 A 
BRANCH  27  28
ATOM     28  S   UNL     1     -47.803  -7.181 -23.374  1.00  0.00    +0.175 S 
ATOM     29  O   UNL     1     -47.874  -8.227 -24.375  1.00  0.00    -0.224 OA
ATOM     30  O   UNL     1     -48.203  -7.432 -22.003  1.00  0.00    -0.224 OA
ATOM     31  C   UNL     1     -46.143  -6.553 -23.360  1.00  0.00    +0.163 C 
ENDBRANCH  27  28
ENDBRANCH   1  22
TORSDOF 5
ENDMDL
