MODEL 1
REMARK VINA RESULT:    -7.920      0.000      0.000
REMARK INTER + INTRA:         -10.593
REMARK INTER:                  -9.773
REMARK INTRA:                  -0.820
REMARK UNBOUND:                -0.820
REMARK SMILES O=C1COCCN1c1cc(Cl)ccc1-c1ccnc(Nc2ccc(F)cc2)n1
REMARK SMILES IDX 15 1 16 2 17 3 18 4 19 5 28 6 14 7 8 8 9 9 10 10 13 11 12 12
REMARK SMILES IDX 11 13 7 14 1 15 2 16 3 17 4 18 6 19 5 20 20 21 21 23 22 24
REMARK SMILES IDX 27 25 23 26 26 27 24 28 25 29
REMARK H PARENT 20 22
ROOT
ATOM      1  C   UNL     1     -50.565   0.441 -19.728  1.00  0.00    +0.078 A 
ATOM      2  C   UNL     1     -51.875   0.596 -19.324  1.00  0.00    +0.049 A 
ATOM      3  C   UNL     1     -52.733   1.080 -20.275  1.00  0.00    +0.117 A 
ATOM      4  N   UNL     1     -52.359   1.373 -21.534  1.00  0.00    -0.221 NA
ATOM      5  C   UNL     1     -51.074   1.182 -21.855  1.00  0.00    +0.227 A 
ATOM      6  N   UNL     1     -50.158   0.723 -20.987  1.00  0.00    -0.213 NA
ENDROOT
BRANCH   1   7
ATOM      7  C   UNL     1     -49.520  -0.062 -18.820  1.00  0.00    +0.024 A 
ATOM      8  C   UNL     1     -48.933  -1.349 -18.952  1.00  0.00    +0.055 A 
ATOM      9  C   UNL     1     -48.067  -1.819 -17.949  1.00  0.00    +0.047 A 
ATOM     10  C   UNL     1     -47.743  -1.016 -16.857  1.00  0.00    +0.043 A 
ATOM     11  C   UNL     1     -49.166   0.727 -17.704  1.00  0.00    +0.014 A 
ATOM     12  C   UNL     1     -48.280   0.259 -16.733  1.00  0.00    +0.021 A 
ATOM     13 Cl   UNL     1     -46.663  -1.606 -15.654  1.00  0.00    -0.084 Cl
BRANCH   8  14
ATOM     14  N   UNL     1     -49.213  -2.190 -20.079  1.00  0.00    -0.307 N 
ATOM     15  O   UNL     1     -47.403  -1.436 -21.346  1.00  0.00    -0.272 OA
ATOM     16  C   UNL     1     -48.429  -2.111 -21.240  1.00  0.00    +0.253 C 
ATOM     17  C   UNL     1     -48.969  -2.910 -22.442  1.00  0.00    +0.260 C 
ATOM     18  O   UNL     1     -49.789  -4.041 -22.186  1.00  0.00    -0.370 OA
ATOM     19  C   UNL     1     -50.077  -3.355 -19.904  1.00  0.00    +0.154 C 
ATOM     20  C   UNL     1     -50.777  -3.724 -21.206  1.00  0.00    +0.183 C 
ENDBRANCH   8  14
ENDBRANCH   1   7
BRANCH   5  21
ATOM     21  N   UNL     1     -50.581   1.447 -23.130  1.00  0.00    -0.324 N 
ATOM     22  H   UNL     1     -49.694   1.918 -23.039  1.00  0.00    +0.170 HD
BRANCH  21  23
ATOM     23  C   UNL     1     -51.022   1.160 -24.425  1.00  0.00    +0.041 A 
ATOM     24  C   UNL     1     -51.989   0.190 -24.722  1.00  0.00    +0.029 A 
ATOM     25  C   UNL     1     -50.472   1.886 -25.497  1.00  0.00    +0.029 A 
ATOM     26  C   UNL     1     -52.392  -0.049 -26.041  1.00  0.00    +0.041 A 
ATOM     27  C   UNL     1     -50.871   1.651 -26.816  1.00  0.00    +0.041 A 
ATOM     28  C   UNL     1     -51.830   0.683 -27.075  1.00  0.00    +0.123 A 
ATOM     29  F   UNL     1     -52.215   0.454 -28.337  1.00  0.00    -0.207 F 
ENDBRANCH  21  23
ENDBRANCH   5  21
TORSDOF 4
ENDMDL
