MODEL 1
REMARK VINA RESULT:    -8.730      0.000      0.000
REMARK INTER + INTRA:         -11.814
REMARK INTER:                 -11.282
REMARK INTRA:                  -0.532
REMARK UNBOUND:                -0.532
REMARK SMILES CS(=O)(=O)N1CCN(c2cc(Cl)ccc2-c2ccnc(Nc3ccc(F)cc3)n2)CC1
REMARK SMILES IDX 9 1 10 2 11 3 12 4 13 5 14 6 15 7 8 8 5 9 6 10 31 11 7 12
REMARK SMILES IDX 30 13 2 14 3 15 4 16 1 17 16 18 17 19 29 20 18 21 20 22
REMARK SMILES IDX 19 23 21 24 22 26 23 27 28 28 24 29 27 30 25 31 26 32
REMARK H PARENT 21 25
ROOT
ATOM      1  C   UNL     1     -50.239  -0.002 -22.057  1.00  0.00    +0.048 A 
ATOM      2  C   UNL     1     -51.436   0.715 -21.869  1.00  0.00    +0.047 A 
ATOM      3  C   UNL     1     -51.701   1.407 -20.684  1.00  0.00    +0.043 A 
ATOM      4 Cl   UNL     1     -53.172   2.289 -20.526  1.00  0.00    -0.084 Cl
ATOM      5  C   UNL     1     -50.789   1.397 -19.644  1.00  0.00    +0.021 A 
ATOM      6  C   UNL     1     -49.611   0.668 -19.783  1.00  0.00    +0.014 A 
ATOM      7  C   UNL     1     -49.321  -0.054 -20.964  1.00  0.00    +0.024 A 
ENDROOT
BRANCH   1   8
ATOM      8  N   UNL     1     -49.958  -0.640 -23.274  1.00  0.00    -0.368 N 
ATOM      9  N   UNL     1     -51.462  -0.604 -25.765  1.00  0.00    -0.199 NA
ATOM     10  C   UNL     1     -50.773   0.626 -25.276  1.00  0.00    +0.123 C 
ATOM     11  C   UNL     1     -51.902  -1.486 -24.648  1.00  0.00    +0.123 C 
ATOM     12  C   UNL     1     -49.563   0.248 -24.401  1.00  0.00    +0.133 C 
ATOM     13  C   UNL     1     -50.719  -1.831 -23.717  1.00  0.00    +0.133 C 
BRANCH   9  14
ATOM     14  S   UNL     1     -52.508  -0.436 -27.077  1.00  0.00    +0.211 S 
ATOM     15  O   UNL     1     -52.594  -1.718 -27.741  1.00  0.00    -0.213 OA
ATOM     16  O   UNL     1     -53.694   0.248 -26.610  1.00  0.00    -0.213 OA
ATOM     17  C   UNL     1     -51.626   0.677 -28.155  1.00  0.00    +0.176 C 
ENDBRANCH   9  14
ENDBRANCH   1   8
BRANCH   7  18
ATOM     18  C   UNL     1     -48.093  -0.880 -20.973  1.00  0.00    +0.078 A 
ATOM     19  C   UNL     1     -46.939  -0.500 -20.324  1.00  0.00    +0.049 A 
ATOM     20  N   UNL     1     -48.170  -2.028 -21.687  1.00  0.00    -0.213 NA
ATOM     21  C   UNL     1     -45.882  -1.366 -20.427  1.00  0.00    +0.117 A 
ATOM     22  C   UNL     1     -47.084  -2.817 -21.735  1.00  0.00    +0.227 A 
ATOM     23  N   UNL     1     -45.933  -2.517 -21.118  1.00  0.00    -0.221 NA
BRANCH  22  24
ATOM     24  N   UNL     1     -47.244  -3.981 -22.480  1.00  0.00    -0.324 N 
ATOM     25  H   UNL     1     -47.459  -4.740 -21.849  1.00  0.00    +0.170 HD
BRANCH  24  26
ATOM     26  C   UNL     1     -47.165  -4.288 -23.842  1.00  0.00    +0.041 A 
ATOM     27  C   UNL     1     -46.934  -5.577 -24.340  1.00  0.00    +0.029 A 
ATOM     28  C   UNL     1     -47.324  -3.244 -24.773  1.00  0.00    +0.029 A 
ATOM     29  C   UNL     1     -46.865  -5.819 -25.717  1.00  0.00    +0.041 A 
ATOM     30  C   UNL     1     -47.256  -3.481 -26.149  1.00  0.00    +0.041 A 
ATOM     31  C   UNL     1     -47.026  -4.769 -26.608  1.00  0.00    +0.123 A 
ATOM     32  F   UNL     1     -46.960  -5.001 -27.925  1.00  0.00    -0.207 F 
ENDBRANCH  24  26
ENDBRANCH  22  24
ENDBRANCH   7  18
TORSDOF 5
ENDMDL
