MODEL 1
REMARK VINA RESULT:    -9.023      0.000      0.000
REMARK INTER + INTRA:         -14.764
REMARK INTER:                 -12.715
REMARK INTRA:                  -2.049
REMARK UNBOUND:                -2.049
REMARK SMILES CNS(=O)(=O)c1ccc(Nc2nccc(-c3ccc(C(C)C)cc3N3C[C@H]4CC[C@@H]3CC4)n2)cc1
REMARK SMILES IDX 10 1 9 3 6 4 7 5 35 6 8 7 34 8 3 9 4 10 5 11 2 12 1 13 11 15
REMARK SMILES IDX 12 16 33 17 13 18 15 19 14 20 16 21 17 22 24 23 18 24 23 25
REMARK SMILES IDX 19 26 25 27 26 28 30 29 27 30 31 31 29 32 32 33 28 34 20 35
REMARK SMILES IDX 21 36 22 37
REMARK H PARENT 10 2 2 14
ROOT
ATOM      1  N   UNL     1     -51.322  -2.472 -24.473  1.00  0.00    -0.324 N 
ATOM      2  H   UNL     1     -52.244  -2.643 -24.844  1.00  0.00    +0.170 HD
ENDROOT
BRANCH   1   3
ATOM      3  C   UNL     1     -50.485  -3.577 -24.297  1.00  0.00    +0.041 A 
ATOM      4  C   UNL     1     -48.723  -5.765 -24.059  1.00  0.00    +0.082 A 
ATOM      5  C   UNL     1     -48.498  -4.799 -25.040  1.00  0.00    +0.024 A 
ATOM      6  C   UNL     1     -49.823  -5.660 -23.209  1.00  0.00    +0.024 A 
ATOM      7  C   UNL     1     -49.374  -3.715 -25.149  1.00  0.00    +0.027 A 
ATOM      8  C   UNL     1     -50.692  -4.570 -23.332  1.00  0.00    +0.027 A 
BRANCH   4   9
ATOM      9  S   UNL     1     -47.623  -7.148 -23.933  1.00  0.00    +0.240 S 
ATOM     10  O   UNL     1     -46.327  -6.775 -24.454  1.00  0.00    -0.207 OA
ATOM     11  O   UNL     1     -47.779  -7.714 -22.612  1.00  0.00    -0.207 OA
BRANCH   9  12
ATOM     12  N   UNL     1     -48.317  -8.247 -24.998  1.00  0.00    -0.214 NA
ATOM     13  C   UNL     1     -47.442  -9.091 -25.799  1.00  0.00    +0.120 C 
ATOM     14  H   UNL     1     -49.188  -8.639 -24.644  1.00  0.00    +0.141 HD
ENDBRANCH   9  12
ENDBRANCH   4   9
ENDBRANCH   1   3
BRANCH   1  15
ATOM     15  C   UNL     1     -51.189  -1.104 -24.253  1.00  0.00    +0.227 A 
ATOM     16  N   UNL     1     -51.071  -0.224 -25.257  1.00  0.00    -0.221 NA
ATOM     17  N   UNL     1     -51.186  -0.749 -22.959  1.00  0.00    -0.213 NA
ATOM     18  C   UNL     1     -50.930   1.071 -24.928  1.00  0.00    +0.117 A 
ATOM     19  C   UNL     1     -51.060   0.565 -22.657  1.00  0.00    +0.078 A 
ATOM     20  C   UNL     1     -50.910   1.526 -23.636  1.00  0.00    +0.049 A 
BRANCH  19  21
ATOM     21  C   UNL     1     -51.050   0.895 -21.218  1.00  0.00    +0.024 A 
ATOM     22  C   UNL     1     -52.119   1.676 -20.726  1.00  0.00    +0.013 A 
ATOM     23  C   UNL     1     -50.069   0.413 -20.307  1.00  0.00    +0.047 A 
ATOM     24  C   UNL     1     -52.263   1.954 -19.368  1.00  0.00    +0.005 A 
ATOM     25  C   UNL     1     -50.266   0.685 -18.936  1.00  0.00    +0.030 A 
ATOM     26  C   UNL     1     -51.344   1.448 -18.451  1.00  0.00    -0.043 A 
BRANCH  23  27
ATOM     27  N   UNL     1     -48.940  -0.296 -20.743  1.00  0.00    -0.368 N 
ATOM     28  C   UNL     1     -47.634   0.369 -20.527  1.00  0.00    +0.120 C 
ATOM     29  C   UNL     1     -48.871  -1.770 -20.683  1.00  0.00    +0.082 C 
ATOM     30  C   UNL     1     -46.521  -0.701 -20.573  1.00  0.00    +0.008 C 
ATOM     31  C   UNL     1     -48.038  -2.201 -21.909  1.00  0.00    +0.025 C 
ATOM     32  C   UNL     1     -48.136  -2.215 -19.403  1.00  0.00    +0.025 C 
ATOM     33  C   UNL     1     -46.664  -1.515 -21.872  1.00  0.00    +0.007 C 
ATOM     34  C   UNL     1     -46.711  -1.649 -19.381  1.00  0.00    +0.007 C 
ENDBRANCH  23  27
BRANCH  26  35
ATOM     35  C   UNL     1     -51.469   1.720 -16.962  1.00  0.00    +0.013 C 
ATOM     36  C   UNL     1     -51.829   3.182 -16.680  1.00  0.00    +0.012 C 
ATOM     37  C   UNL     1     -50.195   1.320 -16.214  1.00  0.00    +0.012 C 
ENDBRANCH  26  35
ENDBRANCH  19  21
ENDBRANCH   1  15
TORSDOF 7
ENDMDL
