REMARK SMILES CS(=O)(=O)N1CCN(c2cc(Cl)ccc2-c2ccnc(Nc3ccc(F)cc3)n2)CC1
REMARK SMILES IDX 9 1 10 2 11 3 12 4 13 5 14 6 15 7 8 8 5 9 6 10 31 11 7 12
REMARK SMILES IDX 30 13 2 14 3 15 4 16 1 17 16 18 17 19 29 20 18 21 20 22
REMARK SMILES IDX 19 23 21 24 22 26 23 27 28 28 24 29 27 30 25 31 26 32
REMARK H PARENT 21 25
ROOT
ATOM      1  C   UNL     1       1.356  -1.946  -0.411  1.00  0.00    +0.048 A 
ATOM      2  C   UNL     1       2.221  -2.664  -1.259  1.00  0.00    +0.047 A 
ATOM      3  C   UNL     1       1.749  -3.355  -2.378  1.00  0.00    +0.043 A 
ATOM      4 Cl   UNL     1       2.861  -4.192  -3.392  1.00  0.00    -0.084 Cl
ATOM      5  C   UNL     1       0.399  -3.364  -2.683  1.00  0.00    +0.021 A 
ATOM      6  C   UNL     1      -0.488  -2.694  -1.845  1.00  0.00    +0.014 A 
ATOM      7  C   UNL     1      -0.043  -1.998  -0.697  1.00  0.00    +0.024 A 
ENDROOT
BRANCH   1   8
ATOM      8  N   UNL     1       1.850  -1.206   0.672  1.00  0.00    -0.368 N 
ATOM      9  N   UNL     1       4.092   0.647   0.770  1.00  0.00    -0.199 NA
ATOM     10  C   UNL     1       2.857   0.989   0.005  1.00  0.00    +0.123 C 
ATOM     11  C   UNL     1       4.343  -0.821   0.809  1.00  0.00    +0.123 C 
ATOM     12  C   UNL     1       1.638   0.266   0.609  1.00  0.00    +0.133 C 
ATOM     13  C   UNL     1       3.112  -1.578   1.353  1.00  0.00    +0.133 C 
BRANCH   9  14
ATOM     14  S   UNL     1       5.428   1.657   0.574  1.00  0.00    +0.211 S 
ATOM     15  O   UNL     1       4.965   3.025   0.661  1.00  0.00    -0.213 OA
ATOM     16  O   UNL     1       6.481   1.166   1.436  1.00  0.00    -0.213 OA
ATOM     17  C   UNL     1       5.918   1.354  -1.113  1.00  0.00    +0.176 C 
ENDBRANCH   9  14
ENDBRANCH   1   8
BRANCH   7  18
ATOM     18  C   UNL     1      -1.074  -1.407   0.184  1.00  0.00    +0.078 A 
ATOM     19  C   UNL     1      -1.107  -1.633   1.543  1.00  0.00    +0.049 A 
ATOM     20  N   UNL     1      -2.005  -0.646  -0.439  1.00  0.00    -0.213 NA
ATOM     21  C   UNL     1      -2.125  -1.023   2.226  1.00  0.00    +0.117 A 
ATOM     22  C   UNL     1      -2.969  -0.087   0.310  1.00  0.00    +0.227 A 
ATOM     23  N   UNL     1      -3.055  -0.253   1.637  1.00  0.00    -0.221 NA
BRANCH  22  24
ATOM     24  N   UNL     1      -3.882   0.687  -0.400  1.00  0.00    -0.324 N 
ATOM     25  H   UNL     1      -3.626   0.672  -1.377  1.00  0.00    +0.170 HD
BRANCH  24  26
ATOM     26  C   UNL     1      -5.009   1.436  -0.048  1.00  0.00    +0.041 A 
ATOM     27  C   UNL     1      -5.488   1.557   1.263  1.00  0.00    +0.029 A 
ATOM     28  C   UNL     1      -5.710   2.109  -1.066  1.00  0.00    +0.029 A 
ATOM     29  C   UNL     1      -6.624   2.322   1.551  1.00  0.00    +0.041 A 
ATOM     30  C   UNL     1      -6.845   2.875  -0.784  1.00  0.00    +0.041 A 
ATOM     31  C   UNL     1      -7.292   2.973   0.525  1.00  0.00    +0.123 A 
ATOM     32  F   UNL     1      -8.379   3.705   0.801  1.00  0.00    -0.207 F 
ENDBRANCH  24  26
ENDBRANCH  22  24
ENDBRANCH   7  18
TORSDOF 5
