MODEL 1
REMARK VINA RESULT:    -8.817      0.000      0.000
REMARK INTER + INTRA:         -10.449
REMARK INTER:                 -10.879
REMARK INTRA:                   0.429
REMARK UNBOUND:                 0.429
REMARK SMILES Fc1ccc(Nc2nccc(-c3ccc(Cl)cc3N3CCOCC3)n2)cc1
REMARK SMILES IDX 7 1 8 2 9 3 10 4 11 5 25 6 6 7 5 9 2 10 3 11 27 12 4 13
REMARK SMILES IDX 26 14 1 15 12 16 13 17 18 18 14 19 17 20 15 21 16 22 19 23
REMARK SMILES IDX 20 24 24 25 21 26 23 27 22 28
REMARK H PARENT 6 8
ROOT
ATOM      1  C   UNL     1     -51.776   1.198 -19.111  1.00  0.00    +0.227 A 
ATOM      2  N   UNL     1     -52.754   2.016 -19.531  1.00  0.00    -0.221 NA
ATOM      3  C   UNL     1     -52.914   2.152 -20.860  1.00  0.00    +0.117 A 
ATOM      4  C   UNL     1     -52.140   1.500 -21.785  1.00  0.00    +0.049 A 
ATOM      5  C   UNL     1     -51.164   0.670 -21.276  1.00  0.00    +0.078 A 
ATOM      6  N   UNL     1     -50.973   0.525 -19.944  1.00  0.00    -0.213 NA
ENDROOT
BRANCH   1   7
ATOM      7  N   UNL     1     -51.651   1.101 -17.728  1.00  0.00    -0.324 N 
ATOM      8  H   UNL     1     -51.702   0.127 -17.468  1.00  0.00    +0.170 HD
BRANCH   7   9
ATOM      9  C   UNL     1     -51.439   2.029 -16.703  1.00  0.00    +0.041 A 
ATOM     10  C   UNL     1     -50.961   3.787 -14.564  1.00  0.00    +0.123 A 
ATOM     11  C   UNL     1     -51.708   4.213 -15.651  1.00  0.00    +0.041 A 
ATOM     12  C   UNL     1     -50.448   2.500 -14.517  1.00  0.00    +0.041 A 
ATOM     13  C   UNL     1     -51.946   3.336 -16.715  1.00  0.00    +0.029 A 
ATOM     14  C   UNL     1     -50.688   1.627 -15.582  1.00  0.00    +0.029 A 
ATOM     15  F   UNL     1     -50.733   4.627 -13.546  1.00  0.00    -0.207 F 
ENDBRANCH   7   9
ENDBRANCH   1   7
BRANCH   5  16
ATOM     16  C   UNL     1     -50.236  -0.093 -22.138  1.00  0.00    +0.024 A 
ATOM     17  C   UNL     1     -49.300  -0.940 -21.501  1.00  0.00    +0.014 A 
ATOM     18  C   UNL     1     -50.213   0.025 -23.561  1.00  0.00    +0.048 A 
ATOM     19  C   UNL     1     -48.331  -1.631 -22.222  1.00  0.00    +0.021 A 
ATOM     20  C   UNL     1     -49.201  -0.663 -24.258  1.00  0.00    +0.047 A 
ATOM     21  C   UNL     1     -48.280  -1.478 -23.598  1.00  0.00    +0.043 A 
ATOM     22 Cl   UNL     1     -47.076  -2.312 -24.505  1.00  0.00    -0.084 Cl
BRANCH  18  23
ATOM     23  N   UNL     1     -51.172   0.796 -24.239  1.00  0.00    -0.366 N 
ATOM     24  C   UNL     1     -52.228   0.020 -24.943  1.00  0.00    +0.145 C 
ATOM     25  C   UNL     1     -50.791   2.024 -24.971  1.00  0.00    +0.145 C 
ATOM     26  C   UNL     1     -51.871  -0.180 -26.423  1.00  0.00    +0.181 C 
ATOM     27  C   UNL     1     -50.545   1.763 -26.467  1.00  0.00    +0.181 C 
ATOM     28  O   UNL     1     -51.647   1.078 -27.079  1.00  0.00    -0.378 OA
ENDBRANCH  18  23
ENDBRANCH   5  16
TORSDOF 4
ENDMDL
