MODEL 1
REMARK VINA RESULT:    -8.082      0.000      0.000
REMARK INTER + INTRA:         -10.345
REMARK INTER:                  -9.971
REMARK INTRA:                  -0.373
REMARK UNBOUND:                -0.373
REMARK SMILES Fc1ccc(Nc2nccc(-c3ccc(Cl)cc3N3CCOCC3)n2)cc1
REMARK SMILES IDX 7 1 8 2 9 3 10 4 11 5 25 6 6 7 5 9 2 10 3 11 27 12 4 13
REMARK SMILES IDX 26 14 1 15 12 16 13 17 18 18 14 19 17 20 15 21 16 22 19 23
REMARK SMILES IDX 20 24 24 25 21 26 23 27 22 28
REMARK H PARENT 6 8
ROOT
ATOM      1  C   UNL     1     -48.113  -0.188 -20.790  1.00  0.00    +0.227 A 
ATOM      2  N   UNL     1     -47.178  -0.420 -19.855  1.00  0.00    -0.221 NA
ATOM      3  C   UNL     1     -46.236  -1.336 -20.141  1.00  0.00    +0.117 A 
ATOM      4  C   UNL     1     -46.188  -2.027 -21.324  1.00  0.00    +0.049 A 
ATOM      5  C   UNL     1     -47.177  -1.727 -22.237  1.00  0.00    +0.078 A 
ATOM      6  N   UNL     1     -48.143  -0.819 -21.971  1.00  0.00    -0.213 NA
ENDROOT
BRANCH   1   7
ATOM      7  N   UNL     1     -49.067   0.763 -20.438  1.00  0.00    -0.324 N 
ATOM      8  H   UNL     1     -48.676   1.362 -19.726  1.00  0.00    +0.170 HD
BRANCH   7   9
ATOM      9  C   UNL     1     -50.360   1.054 -20.883  1.00  0.00    +0.041 A 
ATOM     10  C   UNL     1     -53.002   1.641 -21.640  1.00  0.00    +0.123 A 
ATOM     11  C   UNL     1     -52.070   1.294 -22.606  1.00  0.00    +0.041 A 
ATOM     12  C   UNL     1     -52.647   1.699 -20.302  1.00  0.00    +0.041 A 
ATOM     13  C   UNL     1     -50.755   1.001 -22.227  1.00  0.00    +0.029 A 
ATOM     14  C   UNL     1     -51.332   1.406 -19.928  1.00  0.00    +0.029 A 
ATOM     15  F   UNL     1     -54.260   1.921 -22.004  1.00  0.00    -0.207 F 
ENDBRANCH   7   9
ENDBRANCH   1   7
BRANCH   5  16
ATOM     16  C   UNL     1     -47.275  -2.393 -23.553  1.00  0.00    +0.024 A 
ATOM     17  C   UNL     1     -47.217  -1.575 -24.705  1.00  0.00    +0.014 A 
ATOM     18  C   UNL     1     -47.471  -3.800 -23.708  1.00  0.00    +0.048 A 
ATOM     19  C   UNL     1     -47.388  -2.098 -25.983  1.00  0.00    +0.021 A 
ATOM     20  C   UNL     1     -47.670  -4.293 -25.011  1.00  0.00    +0.047 A 
ATOM     21  C   UNL     1     -47.626  -3.455 -26.128  1.00  0.00    +0.043 A 
ATOM     22 Cl   UNL     1     -47.857  -4.118 -27.701  1.00  0.00    -0.084 Cl
BRANCH  18  23
ATOM     23  N   UNL     1     -47.458  -4.658 -22.596  1.00  0.00    -0.366 N 
ATOM     24  C   UNL     1     -46.264  -5.538 -22.487  1.00  0.00    +0.145 C 
ATOM     25  C   UNL     1     -48.694  -5.322 -22.126  1.00  0.00    +0.145 C 
ATOM     26  C   UNL     1     -46.541  -6.920 -23.096  1.00  0.00    +0.181 C 
ATOM     27  C   UNL     1     -48.853  -6.741 -22.700  1.00  0.00    +0.181 C 
ATOM     28  O   UNL     1     -47.682  -7.540 -22.483  1.00  0.00    -0.378 OA
ENDBRANCH  18  23
ENDBRANCH   5  16
TORSDOF 4
ENDMDL
