MODEL 1
REMARK VINA RESULT:    -7.911      0.000      0.000
REMARK INTER + INTRA:         -11.221
REMARK INTER:                 -10.224
REMARK INTRA:                  -0.998
REMARK UNBOUND:                -0.998
REMARK SMILES Cc1ccc(-c2ccnc(Nc3ccc(S(C)(=O)=O)cc3)n2)c(N2CCOCC2)c1
REMARK SMILES IDX 11 1 10 3 6 4 7 5 22 6 8 7 9 8 5 9 2 10 3 11 30 12 4 13
REMARK SMILES IDX 23 14 1 15 24 16 25 17 29 18 26 19 28 20 27 21 12 22 13 23
REMARK SMILES IDX 21 24 14 25 20 26 15 27 16 28 18 29 19 30 17 31
REMARK H PARENT 11 2
ROOT
ATOM      1  N   UNL     1     -51.585   0.872 -23.103  1.00  0.00    -0.324 N 
ATOM      2  H   UNL     1     -52.132   1.571 -23.583  1.00  0.00    +0.170 HD
ENDROOT
BRANCH   1   3
ATOM      3  C   UNL     1     -51.694   1.093 -21.733  1.00  0.00    +0.227 A 
ATOM      4  C   UNL     1     -50.766   0.682 -19.653  1.00  0.00    +0.078 A 
ATOM      5  C   UNL     1     -51.778   1.388 -19.037  1.00  0.00    +0.049 A 
ATOM      6  N   UNL     1     -50.726   0.524 -20.997  1.00  0.00    -0.213 NA
ATOM      7  C   UNL     1     -52.717   1.941 -19.868  1.00  0.00    +0.117 A 
ATOM      8  N   UNL     1     -52.694   1.811 -21.205  1.00  0.00    -0.221 NA
BRANCH   4   9
ATOM      9  C   UNL     1     -49.681   0.020 -18.897  1.00  0.00    +0.024 A 
ATOM     10  C   UNL     1     -47.567  -1.093 -17.368  1.00  0.00    -0.049 A 
ATOM     11  C   UNL     1     -48.163   0.101 -16.972  1.00  0.00    +0.004 A 
ATOM     12  C   UNL     1     -48.018  -1.724 -18.534  1.00  0.00    +0.030 A 
ATOM     13  C   UNL     1     -49.208   0.642 -17.722  1.00  0.00    +0.013 A 
ATOM     14  C   UNL     1     -49.071  -1.196 -19.312  1.00  0.00    +0.047 A 
ATOM     15  C   UNL     1     -46.423  -1.668 -16.586  1.00  0.00    +0.044 C 
BRANCH  14  16
ATOM     16  N   UNL     1     -49.552  -1.889 -20.445  1.00  0.00    -0.366 N 
ATOM     17  C   UNL     1     -50.275  -3.128 -20.055  1.00  0.00    +0.145 C 
ATOM     18  C   UNL     1     -48.643  -2.070 -21.600  1.00  0.00    +0.145 C 
ATOM     19  C   UNL     1     -50.553  -3.982 -21.301  1.00  0.00    +0.181 C 
ATOM     20  C   UNL     1     -48.240  -3.543 -21.777  1.00  0.00    +0.181 C 
ATOM     21  O   UNL     1     -49.360  -4.422 -21.971  1.00  0.00    -0.378 OA
ENDBRANCH  14  16
ENDBRANCH   4   9
ENDBRANCH   1   3
BRANCH   1  22
ATOM     22  C   UNL     1     -50.910  -0.066 -23.889  1.00  0.00    +0.041 A 
ATOM     23  C   UNL     1     -51.296  -1.407 -24.010  1.00  0.00    +0.027 A 
ATOM     24  C   UNL     1     -49.762   0.350 -24.588  1.00  0.00    +0.027 A 
ATOM     25  C   UNL     1     -50.578  -2.304 -24.808  1.00  0.00    +0.022 A 
ATOM     26  C   UNL     1     -49.036  -0.535 -25.391  1.00  0.00    +0.022 A 
ATOM     27  C   UNL     1     -49.457  -1.858 -25.506  1.00  0.00    +0.067 A 
BRANCH  27  28
ATOM     28  S   UNL     1     -48.537  -2.982 -26.526  1.00  0.00    +0.175 S 
ATOM     29  O   UNL     1     -47.236  -2.394 -26.779  1.00  0.00    -0.224 OA
ATOM     30  O   UNL     1     -49.401  -3.380 -27.621  1.00  0.00    -0.224 OA
ATOM     31  C   UNL     1     -48.301  -4.387 -25.468  1.00  0.00    +0.163 C 
ENDBRANCH  27  28
ENDBRANCH   1  22
TORSDOF 5
ENDMDL
