MODEL 1
REMARK VINA RESULT:    -8.283      0.000      0.000
REMARK INTER + INTRA:         -10.884
REMARK INTER:                 -10.220
REMARK INTRA:                  -0.665
REMARK UNBOUND:                -0.665
REMARK SMILES O=C1COCCN1c1cc(Cl)ccc1-c1ccnc(Nc2ccc(F)cc2)n1
REMARK SMILES IDX 15 1 16 2 17 3 18 4 19 5 28 6 14 7 8 8 9 9 10 10 13 11 12 12
REMARK SMILES IDX 11 13 7 14 1 15 2 16 3 17 4 18 6 19 5 20 20 21 21 23 22 24
REMARK SMILES IDX 27 25 23 26 26 27 24 28 25 29
REMARK H PARENT 20 22
ROOT
ATOM      1  C   UNL     1     -47.308  -1.667 -22.095  1.00  0.00    +0.078 A 
ATOM      2  C   UNL     1     -46.278  -2.006 -21.244  1.00  0.00    +0.049 A 
ATOM      3  C   UNL     1     -46.232  -1.310 -20.066  1.00  0.00    +0.117 A 
ATOM      4  N   UNL     1     -47.129  -0.367 -19.723  1.00  0.00    -0.221 NA
ATOM      5  C   UNL     1     -48.110  -0.105 -20.595  1.00  0.00    +0.227 A 
ATOM      6  N   UNL     1     -48.230  -0.727 -21.779  1.00  0.00    -0.213 NA
ENDROOT
BRANCH   1   7
ATOM      7  C   UNL     1     -47.491  -2.320 -23.403  1.00  0.00    +0.024 A 
ATOM      8  C   UNL     1     -47.742  -3.711 -23.546  1.00  0.00    +0.055 A 
ATOM      9  C   UNL     1     -47.736  -4.285 -24.830  1.00  0.00    +0.047 A 
ATOM     10  C   UNL     1     -47.537  -3.494 -25.961  1.00  0.00    +0.043 A 
ATOM     11  C   UNL     1     -47.298  -1.548 -24.569  1.00  0.00    +0.014 A 
ATOM     12  C   UNL     1     -47.327  -2.127 -25.838  1.00  0.00    +0.021 A 
ATOM     13 Cl   UNL     1     -47.556  -4.217 -27.522  1.00  0.00    -0.084 Cl
BRANCH   8  14
ATOM     14  N   UNL     1     -47.989  -4.551 -22.411  1.00  0.00    -0.307 N 
ATOM     15  O   UNL     1     -50.280  -4.111 -22.330  1.00  0.00    -0.272 OA
ATOM     16  C   UNL     1     -49.272  -4.630 -21.848  1.00  0.00    +0.253 C 
ATOM     17  C   UNL     1     -49.346  -5.396 -20.512  1.00  0.00    +0.260 C 
ATOM     18  O   UNL     1     -48.365  -6.389 -20.249  1.00  0.00    -0.370 OA
ATOM     19  C   UNL     1     -47.010  -5.575 -22.054  1.00  0.00    +0.154 C 
ATOM     20  C   UNL     1     -47.065  -5.896 -20.565  1.00  0.00    +0.183 C 
ENDBRANCH   8  14
ENDBRANCH   1   7
BRANCH   5  21
ATOM     21  N   UNL     1     -49.094   0.846 -20.340  1.00  0.00    -0.324 N 
ATOM     22  H   UNL     1     -48.745   1.492 -19.649  1.00  0.00    +0.170 HD
BRANCH  21  23
ATOM     23  C   UNL     1     -50.368   1.094 -20.859  1.00  0.00    +0.041 A 
ATOM     24  C   UNL     1     -50.695   0.973 -22.216  1.00  0.00    +0.029 A 
ATOM     25  C   UNL     1     -51.389   1.483 -19.972  1.00  0.00    +0.029 A 
ATOM     26  C   UNL     1     -51.992   1.232 -22.674  1.00  0.00    +0.041 A 
ATOM     27  C   UNL     1     -52.686   1.743 -20.425  1.00  0.00    +0.041 A 
ATOM     28  C   UNL     1     -52.975   1.614 -21.774  1.00  0.00    +0.123 A 
ATOM     29  F   UNL     1     -54.216   1.862 -22.213  1.00  0.00    -0.207 F 
ENDBRANCH  21  23
ENDBRANCH   5  21
TORSDOF 4
ENDMDL
