REMARK SMILES O=C1COCCN1c1cc(C2CC2)ccc1-c1ccnc(Nc2ccc(F)cc2)n1
REMARK SMILES IDX 17 1 18 2 19 3 20 4 21 5 30 6 16 7 8 8 9 9 10 10 15 11 14 12
REMARK SMILES IDX 7 13 1 14 2 15 3 16 4 17 6 18 5 19 11 20 12 21 13 22 22 23
REMARK SMILES IDX 23 25 24 26 29 27 25 28 28 29 26 30 27 31
REMARK H PARENT 22 24
ROOT
ATOM      1  C   UNL     1       0.469   0.219   0.801  1.00  0.00    +0.078 A 
ATOM      2  C   UNL     1       0.647  -0.708   1.806  1.00  0.00    +0.049 A 
ATOM      3  C   UNL     1       1.934  -1.138   2.005  1.00  0.00    +0.117 A 
ATOM      4  N   UNL     1       2.982  -0.700   1.289  1.00  0.00    -0.221 NA
ATOM      5  C   UNL     1       2.736   0.210   0.336  1.00  0.00    +0.227 A 
ATOM      6  N   UNL     1       1.513   0.703   0.088  1.00  0.00    -0.213 NA
ENDROOT
BRANCH   1   7
ATOM      7  C   UNL     1      -0.849   0.809   0.486  1.00  0.00    +0.024 A 
ATOM      8  C   UNL     1      -2.047   0.076   0.312  1.00  0.00    +0.053 A 
ATOM      9  C   UNL     1      -3.268   0.770   0.151  1.00  0.00    +0.031 A 
ATOM     10  C   UNL     1      -3.360   2.174   0.127  1.00  0.00    -0.043 A 
ATOM     11  C   UNL     1      -0.938   2.215   0.440  1.00  0.00    +0.013 A 
ATOM     12  C   UNL     1      -2.158   2.876   0.268  1.00  0.00    +0.005 A 
BRANCH   8  13
ATOM     13  N   UNL     1      -2.100  -1.355   0.257  1.00  0.00    -0.307 N 
ATOM     14  O   UNL     1      -0.472  -1.585  -1.392  1.00  0.00    -0.272 OA
ATOM     15  C   UNL     1      -1.214  -2.084  -0.546  1.00  0.00    +0.253 C 
ATOM     16  C   UNL     1      -1.270  -3.616  -0.386  1.00  0.00    +0.260 C 
ATOM     17  O   UNL     1      -2.042  -4.171   0.668  1.00  0.00    -0.370 OA
ATOM     18  C   UNL     1      -2.985  -2.042   1.206  1.00  0.00    +0.154 C 
ATOM     19  C   UNL     1      -3.279  -3.475   0.787  1.00  0.00    +0.183 C 
ENDBRANCH   8  13
BRANCH  10  20
ATOM     20  C   UNL     1      -4.661   2.933  -0.060  1.00  0.00    +0.019 C 
ATOM     21  C   UNL     1      -5.697   2.459  -1.051  1.00  0.00    +0.009 C 
ATOM     22  C   UNL     1      -5.981   2.380   0.422  1.00  0.00    +0.009 C 
ENDBRANCH  10  20
ENDBRANCH   1   7
BRANCH   5  23
ATOM     23  N   UNL     1       3.744   0.730  -0.471  1.00  0.00    -0.324 N 
ATOM     24  H   UNL     1       3.314   1.327  -1.162  1.00  0.00    +0.170 HD
BRANCH  23  25
ATOM     25  C   UNL     1       5.112   0.474  -0.609  1.00  0.00    +0.041 A 
ATOM     26  C   UNL     1       5.828   1.180  -1.594  1.00  0.00    +0.029 A 
ATOM     27  C   UNL     1       5.826  -0.418   0.201  1.00  0.00    +0.029 A 
ATOM     28  C   UNL     1       7.201   0.989  -1.773  1.00  0.00    +0.041 A 
ATOM     29  C   UNL     1       7.200  -0.614   0.026  1.00  0.00    +0.041 A 
ATOM     30  C   UNL     1       7.875   0.091  -0.960  1.00  0.00    +0.123 A 
ATOM     31  F   UNL     1       9.190  -0.096  -1.126  1.00  0.00    -0.207 F 
ENDBRANCH  23  25
ENDBRANCH   5  23
TORSDOF 5
